 hostname is         nxv42
 this is node-proc. number 0 running on node nxv42
 the total number of node-proc. spawned is   1

   OpenMP run-time library returned nthreads =  2

 ricc2 (nxv42) : TURBOMOLE V7.0( 19819 ) 16 Jun 2015 at 16:30:15
 Copyright (C) 2015 TURBOMOLE GmbH, Karlsruhe


    2017-10-05 14:18:12.389 



                              R I C C 2 - PROGRAM

                          the quantum chemistry groups
                             at the universities in
                           Karlsruhe, Bochum & Mainz
                                   Germany



   *-----------------------------------------------------------------------*
   |                     program will use  2 thread(s)                     |
   *-----------------------------------------------------------------------*


              +--------------------------------------------------+
              | Atomic coordinate, charge and isotop information |
              +--------------------------------------------------+

                    atomic coordinates            atom    charge  isotop
        -11.25171698    0.85505511   -0.54165317    c      6.000     0
        -10.15529635    1.11313020    1.84287671    c      6.000     0
         -7.61893747    0.50565612    2.20980463    c      6.000     0
         -6.13041495   -0.37476490    0.19990930    c      6.000     0
         -7.25488306   -0.62956677   -2.18782347    c      6.000     0
         -9.79016343   -0.01828559   -2.55562132    c      6.000     0
        -13.22527466    1.32830675   -0.82721117    h      1.000     0
        -11.27230850    1.80595517    3.41662378    h      1.000     0
         -6.76185516    0.76488799    4.05587488    h      1.000     0
         -6.14289344   -1.36530286   -3.74737041    h      1.000     0
        -10.63096220   -0.24325843   -4.41221453    h      1.000     0
         -3.45146036   -1.01584393    0.58855159    c      6.000     0
         -1.62409858   -0.40944219   -1.22333044    c      6.000     0
         -2.64259398   -2.25202991    2.79435443    c      6.000     0
          0.92467145   -0.99363733   -0.87484947    c      6.000     0
         -2.18581563    0.60033566   -2.91963358    h      1.000     0
         -0.11721874   -2.85413434    3.16456087    c      6.000     0
         -4.02328172   -2.79748513    4.21090750    h      1.000     0
          1.69124147   -2.23345165    1.33336214    c      6.000     0
          2.26965514   -0.45691851   -2.32039120    h      1.000     0
          0.50414189   -3.83606767    4.85370555    h      1.000     0
          4.10841332   -2.95170965    1.87691482    o      8.000     0
          6.04407463   -2.21770678    0.13236055    c      6.000     0
          7.63934182   -3.44313524    0.59283915    h      1.000     0
          5.45365394   -2.65347456   -1.80513159    h      1.000     0
          6.78438953    0.53722556    0.41695341    c      6.000     0
          5.11383596    1.73967226    0.21583836    h      1.000     0
          7.50445697    0.82743775    2.33486979    h      1.000     0
          8.77674920    1.30214344   -1.51656672    c      6.000     0
         10.42131092    0.05564318   -1.34380809    h      1.000     0
          8.02483258    1.01686755   -3.42503306    h      1.000     0
          9.59940540    4.04286883   -1.20079528    c      6.000     0
         11.01976780    4.57428493   -2.59971168    h      1.000     0
          7.99169202    5.32102509   -1.41226035    h      1.000     0
         10.40754120    4.35571984    0.67309810    h      1.000     0
 
       center of nuclear mass  :   -1.00242969   -0.42124075    0.24986110
       center of nuclear charge:   -0.83870793   -0.35963843    0.21351535

              +--------------------------------------------------+
              |               basis set information              |
              +--------------------------------------------------+

              we will work with the 1s 3p 5d 7f 9g ... basis set
              ...i.e. with spherical basis functions...

   type   atoms  prim   cont   basis
   ---------------------------------------------------------------------------
    c       16     46     31   def2-TZVP   [5s3p2d1f|11s6p2d1f]
    h       18      8      6   def2-TZVP   [3s1p|5s1p]
    o        1     46     31   def2-TZVP   [5s3p2d1f|11s6p2d1f]
   ---------------------------------------------------------------------------
   total:   35    926    635
   ---------------------------------------------------------------------------

   total number of primitive shells          :   46
   total number of contracted shells         :  259
   total number of cartesian basis functions :  720
   total number of SCF-basis functions       :  635



   =========================================================================


     restricted closed shell calculation for the wavefunction models:
               CC2        - Approximate CC Singles and Doubles


     global parameters for ricc2 program:

        hard restart (reuse of interm.) :  disabled
        soft restart (reuse of vectors) :  disabled
        threshold for vector function   :    0.100000E-05
        convergence threshold energy    :    0.100000E-06
        linear dependence threshold     :    0.100000E-13
        global print level              :      1
        maximum number of iterations    :    30
        maximum number DIIS vectors     :    10
        max. dim. of reduced space      :   100
        core memory limit (MB)          :   500


   =========================================================================
     "cartesian on" in $drvopt is ignored by $ricc2

    der. integral neglect threshold  :  0.10E-07
    integral neglect threshold       :  0.46E-11
    integral storage threshold THIZE :  0.10E-04
    integral storage threshold THIME :         5


                  +------------------------------------------+
                  |     Auxiliary basis set information      |
                  +------------------------------------------+

              we will work with the 1s 3p 5d 7f 9g ... basis set
              ...i.e. with spherical basis functions...

   type   atoms  prim   cont   basis
   ---------------------------------------------------------------------------
    c       16     81     76   def2-TZVP   [8s6p4d3f1g|8s6p5d3f1g]
    h       18     23     15   def2-TZVP   [4s2p1d|4s3p2d]
    o        1     81     76   def2-TZVP   [8s6p4d3f1g|8s6p5d3f1g]
   ---------------------------------------------------------------------------
   total:   35   1791   1562
   ---------------------------------------------------------------------------

   total number of primitive shells          :   55
   total number of contracted shells         :  500
   total number of cartesian basis functions : 1903
   total number of SCF-basis functions       : 1562


 symmetry group of the molecule :   c1 

 the group has the following generators :
   c1(z)

    1 symmetry operations found

 there are 1 real representations :   a   

 maximum number of shells which are related by symmetry :  1


 The symmetry information takes   1 MB

*---------------------------------------------------------------------*
|               simplified C1 algorithm will be applied               |
*---------------------------------------------------------------------*
  MOs are in ASCII format !


 reading orbital data $scfmo  from file mos . 

 orbital characterization : scfconv=7
 

         --------------------------------------------------------------
                   checking mo's by calculating trace(D*S)

              number of electrons : 
                 from trace(D*S)         :  122.000000000008
                 from occupation numbers :  122.000000000000

              molecular charge           :    0.000000000000
         --------------------------------------------------------------

 time elapsed for calculating density matrices :   0.062 sec



              +--------------------------------------------+
              | list of orbitals that will be kept frozen: |
              +--------------------------------------------+
              |   irrep   index      energy     occ/vir    |
              +--------------------------------------------+
              |   a         1      -20.5789     occupied   |
              |   a         2      -11.2985     occupied   |
              |   a         3      -11.2828     occupied   |
              |   a         4      -11.2414     occupied   |
              |   a         5      -11.2381     occupied   |
              |   a         6      -11.2364     occupied   |
              |   a         7      -11.2331     occupied   |
              |   a         8      -11.2331     occupied   |
              |   a         9      -11.2329     occupied   |
              |   a        10      -11.2306     occupied   |
              |   a        11      -11.2299     occupied   |
              |   a        12      -11.2297     occupied   |
              |   a        13      -11.2295     occupied   |
              |   a        14      -11.2269     occupied   |
              |   a        15      -11.2253     occupied   |
              |   a        16      -11.2221     occupied   |
              |   a        17      -11.2166     occupied   |
              +--------------------------------------------+



   Molecular Orbital Statistic:
   ============================

   -----------------------------
   orbitals in total:
   -----------------------------
    frozen occupied :     17
    active occupied :     44
    active virtual  :    574
    frozen virtual  :      0
    all together    :    635
   -----------------------------


     time in riccmos       cpu:  0.60 sec    wall:  0.30 sec    ratio:  2.0

     total memory allocated for calculation of (Q|P)**(-1/2) : 28 MiB


     calculation of (P|Q) ...
     time in lp2sym        cpu:  0.12 sec    wall:  0.06 sec    ratio:  2.0


     calculation of the Cholesky decomposition of (P|Q)**(-1) ...
     time in invmetri      cpu:  0.51 sec    wall:  0.26 sec    ratio:  2.0

   threshold for RMS(d[D]) in SCF was     :  0.10E-06
   integral neglect threshold             :  0.46E-11
   derivative integral neglect threshold  :  0.10E-07


 setting up bound for integral derivative estimation

 increment for numerical differentiation : 0.00050000

   =========================================================================

     Energy of reference wave function is  -691.4784671245000
     Maximum orbital residual is           0.1738126349419E-05


     Number of symmetry-nonredundant auxiliary basis functions:     1562

     Block lengths for integral files:
        frozen occupied (BOI):        1 MiB
        active occupied (BJI):        1 MiB
        active virtual  (BAI):        7 MiB
        frozen virtual  (BGI):        0 MiB
               general  (BTI):        8 MiB

   =========================================================================




   **************************************************************************
   *                                                                        *
   *          OPTIMIZATION OF THE GROUND STATE CLUSTER AMPLITUDES           *
   *                                                                        *
   **************************************************************************
     start CC2 from scratch because restart not enabled


   Iter.   MP2 energy       Norm(Omega)    Norm(t1)  Norm(t2)     cpu    wall
   ...........................................................................
    1   -694.2453892657    0.1612334438     0.00000   0.57485    1.91    0.96
   ...........................................................................
     time in total         cpu:  1 min 55 s  wall:  0 min 58 s  ratio:  2.0


              *****************************************************
              *                                                   *
              *   RHF  energy           :   -691.4784671245       *
              *   correlation energy    :     -2.7669221412       *
              *                                                   *
              *   Final MP2 energy      :   -694.2453892657       *
              *   D1 diagnostic         :      0.0334             *
              *                                                   *
              *****************************************************



   Iter.   CC2 energy       Norm(Omega)    Norm(t1)  Norm(t2)     cpu    wall
   ...........................................................................
    1   -694.2689325777    0.0320853610     0.09009   0.58089    2.16    1.08
    2   -694.2754688710    0.0045457993     0.12037   0.58284    2.16    1.08
    3   -694.2761583084    0.0010725552     0.12584   0.58309    2.17    1.09
    4   -694.2761325846    0.0002232542     0.12637   0.58310    2.16    1.08
    5   -694.2761414702    0.0000491564     0.12647   0.58310    2.16    1.09
    6   -694.2761415326    0.0000121204     0.12646   0.58310    2.16    1.08
    7   -694.2761415921    0.0000024903     0.12647   0.58310    2.16    1.08
    8   -694.2761415420    0.0000005288     0.12647   0.58310    2.17    1.09
   ...........................................................................
   CC equations converged in  8 iterations.

   last energy change         :  0.50E-07
   convergence threshold      :  0.10E-06
   norm of the vector function:  0.53E-06
   convergence threshold      :  0.10E-05

     time in total         cpu: 17 min 19 s  wall:  8 min 41 s  ratio:  2.0


     **********************************************************************
     *                                                                    *
     *   RHF  energy                             :   -691.4784671245      *
     *   correlation energy                      :     -2.7976744175      *
     *                                                                    *
     *   Final CC2 energy                        :   -694.2761415420      *
     *                                                                    *
     *   D1 diagnostic                           :      0.0575            *
     *                                                                    *
     **********************************************************************



 **************************************************************
 *                                                            *
 *    OPTIMIZATION OF THE EXCITED STATE CLUSTER AMPLITUDES    *
 *                                                            *
 **************************************************************


  preoptimize excitation energies/vectors using CCS:
  ==================================================


 ======== LINEAR CC RESPONSE SOLVER ========

    threshold for convergence: 0.10E-02
    maximum number of simultaneous jacoby matrix transformations:  3
                                                
     summary of start vectors generation:
     -------------------------------------------
     type of solution vectors      : RE0
     symmetry                      : a  
     number of vectors requested   :     3
     number of vectors generated   :     3
       -- guessed as rhs/(e_a-e_i) :     3
     -------------------------------------------
                                                

    Iter  #Vectors  time (min)    max. residual 
    --------------------------------------------
      1       3         0.27     0.11E+00  (  1)
      2       3         0.27     0.52E-01  (  1)
      3       3         0.27     0.32E-01  (  1)
      4       3         0.27     0.23E-01  (  1)
      5       3         0.27     0.31E-01  (  3)
      6       3         0.27     0.68E-01  (  2)
      7       3         0.27     0.37E-01  (  2)
      8       3         0.28     0.15E-01  (  2)
      9       2         0.22     0.60E-02  (  2)
     10       2         0.22     0.22E-02  (  2)
     11       1         0.17     0.10E-02  (  2)
     12       1         0.17     0.65E-03  (  2)
    --------------------------------------------
    converged in 12 iterations

         Total time          2.99 minutes


 ===========================================




 Note that this is the intermediate result of a preoptimization!
 The convergence threshold was  0.1E-02 only!


 +==================================================================+
 | sym | multi | state |          CCS excitation energies           |
 |     |       |       +--------------------------------------------+
 |     |       |       |   Hartree    |     eV       |     cm-1     |
 +==================================================================+
 | a   |   3   |   1   |    0.1126914 |      3.06649 |    24732.895 |
 | a   |   3   |   2   |    0.1299616 |      3.53643 |    28523.273 |
 | a   |   3   |   3   |    0.1605471 |      4.36871 |    35236.007 |
 +==================================================================+




  preoptimize CC2 excitation energies/vectors using a quasi linear algorithm:
  ===========================================================================


 ======== LINEAR CC RESPONSE SOLVER ========

    threshold for convergence: 0.10E-02
    maximum number of simultaneous jacoby matrix transformations:  3
                                                
     summary of start vectors generation:
     -------------------------------------------
     type of solution vectors      : RE0
     symmetry                      : a  
     number of vectors requested   :     3
     number of vectors generated   :     3
       -- restarted from file      :     3
     -------------------------------------------
                                                

    Iter  #Vectors  time (min)    max. residual 
    --------------------------------------------
 threshold for this macro iteration:  3.617355483460899E-002
      1       3         4.10     0.47E-01  (  2)
      2       3         4.10     0.23E-01  (  2)
                                                
     summary of start vectors generation:
     -------------------------------------------
     type of solution vectors      : RE0
     symmetry                      : a  
     number of vectors requested   :     3
     number of vectors generated   :     3
       -- restarted from file      :     3
     -------------------------------------------
                                                

    Iter  #Vectors  time (min)    max. residual 
    --------------------------------------------
 threshold for this macro iteration:  1.303749136879168E-003
      3       3         4.10     0.22E-01  (  2)
 ...adapted threshold to:  2.622059734451537E-003
      4       3         4.11     0.20E-01  (  1)
 ...adapted threshold to:  3.389977808099826E-003
      5       3         4.10     0.10E-01  (  1)
 ...adapted threshold to:  3.530280896926280E-003
      6       2         2.87     0.41E-02  (  1)
 ...adapted threshold to:  3.557439003400498E-003
      7       1         1.63     0.28E-02  (  2)
                                                
     summary of start vectors generation:
     -------------------------------------------
     type of solution vectors      : RE0
     symmetry                      : a  
     number of vectors requested   :     3
     number of vectors generated   :     3
       -- restarted from file      :     3
     -------------------------------------------
                                                

    Iter  #Vectors  time (min)    max. residual 
    --------------------------------------------
 threshold for this macro iteration:  1.000000000000000E-003
      8       3         4.10     0.95E-03  (  2)
    --------------------------------------------
    converged in  8 iterations

         Total time         29.10 minutes


 ===========================================




 Note that this is the intermediate result of a preoptimization!
 The convergence threshold was  0.1E-02 only!


 +==================================================================+
 | sym | multi | state |          CC2 excitation energies           |
 |     |       |       +--------------------------------------------+
 |     |       |       |   Hartree    |     eV       |     cm-1     |
 +==================================================================+
 | a   |   3   |   1   |    0.1383715 |      3.76528 |    30369.031 |
 | a   |   3   |   2   |    0.1592258 |      4.33276 |    34946.031 |
 | a   |   3   |   3   |    0.1636314 |      4.45264 |    35912.949 |
 +==================================================================+





  solve for CC2 excitation energies/vectors using a DIIS algorithm:
  =================================================================
                                                
     summary of start vectors generation:
     -------------------------------------------
     type of solution vectors      : RE0
     symmetry                      : a  
     number of vectors requested   :     3
     number of vectors generated   :     3
       -- restarted from file      :     3
     -------------------------------------------
                                                


 ========= DIIS CC RESPONSE SOLVER =========

    threshold for convergence:0.10E-05
    max. nb. of DIIS vectors :      10
    maximum number of simultaneous jacoby matrix transformations:  3

    Iter  #Vectors  time (min)   residual
    --------------------------------------
      1       3         4.11     0.47E-03  (  2)    0.27E-04
      2       3         4.15     0.41E-03  (  3)    0.28E-04
      3       3         4.13     0.26E-03  (  3)    0.35E-04
      4       3         4.12     0.15E-03  (  3)    0.20E-04
      5       3         4.11     0.63E-04  (  2)    0.39E-04
      6       3         4.11     0.34E-04  (  3)    0.22E-04
      7       3         4.11     0.27E-04  (  3)    0.43E-04
      8       3         4.11     0.21E-04  (  3)    0.25E-04
      9       2         2.87     0.15E-04  (  3)    0.51E-04
     10       2         2.87     0.74E-05  (  3)    0.25E-04
     11       2         2.89     0.38E-05  (  3)    0.34E-04
     12       2         2.87     0.21E-05  (  3)    0.29E-04
     13       2         2.87     0.98E-06  (  3)    0.29E-04
    --------------------------------------
    converged in  13 iterations

   Total time         47.32 minutes


 ===========================================





 +================================================================================+
 | sym | multi | state |          CC2 excitation energies       |  %t1   |  %t2   |
 |     |       |       +----------------------------------------+--------+--------+
 |     |       |       |   Hartree    |    eV      |    cm-1    |    %   |    %   |
 +================================================================================+
 | a   |   3   |   1   |    0.1383500 |    3.76469 |  30364.314 |  93.25 |   6.75 |
 | a   |   3   |   2   |    0.1592113 |    4.33236 |  34942.837 |  92.18 |   7.82 |
 | a   |   3   |   3   |    0.1636139 |    4.45216 |  35909.092 |  94.43 |   5.57 |
 +================================================================================+


       Energy:     0.1383500 H      3.76469 eV    30364.314 cm-1

     +=======================================================================+
     | type: RE0                    symmetry: a               state:    1    |
     +-----------------------+-----------------------+-----------------------+
     | occ. orb.  index spin | vir. orb.  index spin |  coeff/|amp|     %    |
     +=======================+=======================+=======================+
     |   61 a       61       |   62 a       62       |   0.87175      76.0   |
     |   59 a       59       |   63 a       63       |   0.20058       4.0   |
     |   58 a       58       |   69 a       69       |   0.19054       3.6   |
     |   60 a       60       |   64 a       64       |   0.17739       3.1   |
     |   61 a       61       |   69 a       69       |  -0.11229       1.3   |
     |   58 a       58       |   70 a       70       |  -0.10374       1.1   |
     |   58 a       58       |   71 a       71       |   0.09996       1.0   |
     |   59 a       59       |   64 a       64       |   0.08462       0.7   |
     |   60 a       60       |   63 a       63       |  -0.08427       0.7   |
     |   61 a       61       |   71 a       71       |  -0.06552       0.4   |
     |   58 a       58       |   72 a       72       |  -0.06126       0.4   |
     |   61 a       61       |   65 a       65       |  -0.05557       0.3   |
     |   61 a       61       |   70 a       70       |   0.05420       0.3   |
     |   61 a       61       |   72 a       72       |   0.05381       0.3   |
     |   49 a       49       |   91 a       91       |  -0.03994       0.2   |
     |   59 a       59       |   67 a       67       |  -0.03943       0.2   |
     |   61 a       61       |  120 a      120       |  -0.03860       0.1   |
     |   61 a       61       |   79 a       79       |   0.03780       0.1   |
     |   58 a       58       |   67 a       67       |  -0.03761       0.1   |
     |   61 a       61       |  117 a      117       |  -0.03744       0.1   |
     +=======================+=======================+=======================+
     norm of printed elements:  0.94143


       Energy:     0.1592113 H      4.33236 eV    34942.837 cm-1

     +=======================================================================+
     | type: RE0                    symmetry: a               state:    2    |
     +-----------------------+-----------------------+-----------------------+
     | occ. orb.  index spin | vir. orb.  index spin |  coeff/|amp|     %    |
     +=======================+=======================+=======================+
     |   61 a       61       |   63 a       63       |   0.74555      55.6   |
     |   61 a       61       |   64 a       64       |   0.28314       8.0   |
     |   58 a       58       |   63 a       63       |  -0.24207       5.9   |
     |   59 a       59       |   62 a       62       |   0.21053       4.4   |
     |   59 a       59       |   63 a       63       |  -0.19074       3.6   |
     |   58 a       58       |   62 a       62       |   0.18949       3.6   |
     |   60 a       60       |   64 a       64       |   0.18879       3.6   |
     |   58 a       58       |   64 a       64       |  -0.12957       1.7   |
     |   61 a       61       |   67 a       67       |  -0.11877       1.4   |
     |   61 a       61       |   65 a       65       |  -0.11467       1.3   |
     |   61 a       61       |   69 a       69       |   0.11010       1.2   |
     |   60 a       60       |   63 a       63       |  -0.10236       1.0   |
     |   59 a       59       |   64 a       64       |  -0.09893       1.0   |
     |   59 a       59       |   69 a       69       |  -0.07544       0.6   |
     |   61 a       61       |   71 a       71       |   0.07002       0.5   |
     |   61 a       61       |   80 a       80       |  -0.05701       0.3   |
     |   61 a       61       |   62 a       62       |   0.05070       0.3   |
     |   61 a       61       |   70 a       70       |  -0.04866       0.2   |
     |   58 a       58       |   69 a       69       |   0.04829       0.2   |
     |   59 a       59       |   67 a       67       |   0.04749       0.2   |
     +=======================+=======================+=======================+
     norm of printed elements:  0.94666


       Energy:     0.1636139 H      4.45216 eV    35909.092 cm-1

     +=======================================================================+
     | type: RE0                    symmetry: a               state:    3    |
     +-----------------------+-----------------------+-----------------------+
     | occ. orb.  index spin | vir. orb.  index spin |  coeff/|amp|     %    |
     +=======================+=======================+=======================+
     |   58 a       58       |   62 a       62       |   0.44662      19.9   |
     |   60 a       60       |   64 a       64       |   0.44660      19.9   |
     |   61 a       61       |   63 a       63       |  -0.33844      11.5   |
     |   61 a       61       |   69 a       69       |   0.33258      11.1   |
     |   59 a       59       |   63 a       63       |  -0.27085       7.3   |
     |   60 a       60       |   63 a       63       |  -0.23604       5.6   |
     |   58 a       58       |   63 a       63       |   0.18327       3.4   |
     |   61 a       61       |   70 a       70       |  -0.17806       3.2   |
     |   61 a       61       |   71 a       71       |   0.15904       2.5   |
     |   59 a       59       |   64 a       64       |  -0.13633       1.9   |
     |   61 a       61       |   64 a       64       |  -0.13134       1.7   |
     |   61 a       61       |   72 a       72       |  -0.10414       1.1   |
     |   60 a       60       |   65 a       65       |  -0.08238       0.7   |
     |   58 a       58       |   64 a       64       |   0.07959       0.6   |
     |   58 a       58       |   65 a       65       |  -0.06585       0.4   |
     |   61 a       61       |   66 a       66       |  -0.05609       0.3   |
     |   59 a       59       |   69 a       69       |   0.04607       0.2   |
     |   61 a       61       |   75 a       75       |  -0.04543       0.2   |
     |   61 a       61       |  107 a      107       |   0.04252       0.2   |
     |   51 a       51       |   91 a       91       |  -0.04177       0.2   |
     +=======================+=======================+=======================+
     norm of printed elements:  0.91876



      The semi-canonical algorithm will be used for densities


    ------------------------------------------------------------------------
         total  cpu-time :  2 hours 58 minutes and  7 seconds
         total wall-time :  1 hours 29 minutes and 22 seconds
    ------------------------------------------------------------------------


   ****  ricc2 : all done  ****


    2017-10-05 15:47:33.899 

