 Entering Gaussian System, Link 0=g09
 Input=m1-FC.com
 Output=m1-FC.out
 Initial command:
 /share/apps/gaussian/g09_D01/g09/l1.exe "/tmp/140991.1.all.q/Gau-11493.inp" -scrdir="/tmp/140991.1.all.q/"
 Entering Link 1 = /share/apps/gaussian/g09_D01/g09/l1.exe PID=     11494.
  
 Copyright (c) 1988,1990,1992,1993,1995,1998,2003,2009,2013,
            Gaussian, Inc.  All Rights Reserved.
  
 This is part of the Gaussian(R) 09 program.  It is based on
 the Gaussian(R) 03 system (copyright 2003, Gaussian, Inc.),
 the Gaussian(R) 98 system (copyright 1998, Gaussian, Inc.),
 the Gaussian(R) 94 system (copyright 1995, Gaussian, Inc.),
 the Gaussian 92(TM) system (copyright 1992, Gaussian, Inc.),
 the Gaussian 90(TM) system (copyright 1990, Gaussian, Inc.),
 the Gaussian 88(TM) system (copyright 1988, Gaussian, Inc.),
 the Gaussian 86(TM) system (copyright 1986, Carnegie Mellon
 University), and the Gaussian 82(TM) system (copyright 1983,
 Carnegie Mellon University). Gaussian is a federally registered
 trademark of Gaussian, Inc.
  
 This software contains proprietary and confidential information,
 including trade secrets, belonging to Gaussian, Inc.
  
 This software is provided under written license and may be
 used, copied, transmitted, or stored only in accord with that
 written license.
  
 The following legend is applicable only to US Government
 contracts under FAR:
  
                    RESTRICTED RIGHTS LEGEND
  
 Use, reproduction and disclosure by the US Government is
 subject to restrictions as set forth in subparagraphs (a)
 and (c) of the Commercial Computer Software - Restricted
 Rights clause in FAR 52.227-19.
  
 Gaussian, Inc.
 340 Quinnipiac St., Bldg. 40, Wallingford CT 06492
  
  
 ---------------------------------------------------------------
 Warning -- This program may not be used in any manner that
 competes with the business of Gaussian, Inc. or will provide
 assistance to any competitor of Gaussian, Inc.  The licensee
 of this program is prohibited from giving any competitor of
 Gaussian, Inc. access to this program.  By using this program,
 the user acknowledges that Gaussian, Inc. is engaged in the
 business of creating and licensing software in the field of
 computational chemistry and represents and warrants to the
 licensee that it is not a competitor of Gaussian, Inc. and that
 it will not use this program in any manner prohibited above.
 ---------------------------------------------------------------
  

 Cite this work as:
 Gaussian 09, Revision D.01,
 M. J. Frisch, G. W. Trucks, H. B. Schlegel, G. E. Scuseria, 
 M. A. Robb, J. R. Cheeseman, G. Scalmani, V. Barone, B. Mennucci, 
 G. A. Petersson, H. Nakatsuji, M. Caricato, X. Li, H. P. Hratchian, 
 A. F. Izmaylov, J. Bloino, G. Zheng, J. L. Sonnenberg, M. Hada, 
 M. Ehara, K. Toyota, R. Fukuda, J. Hasegawa, M. Ishida, T. Nakajima, 
 Y. Honda, O. Kitao, H. Nakai, T. Vreven, J. A. Montgomery, Jr., 
 J. E. Peralta, F. Ogliaro, M. Bearpark, J. J. Heyd, E. Brothers, 
 K. N. Kudin, V. N. Staroverov, T. Keith, R. Kobayashi, J. Normand, 
 K. Raghavachari, A. Rendell, J. C. Burant, S. S. Iyengar, J. Tomasi, 
 M. Cossi, N. Rega, J. M. Millam, M. Klene, J. E. Knox, J. B. Cross, 
 V. Bakken, C. Adamo, J. Jaramillo, R. Gomperts, R. E. Stratmann, 
 O. Yazyev, A. J. Austin, R. Cammi, C. Pomelli, J. W. Ochterski, 
 R. L. Martin, K. Morokuma, V. G. Zakrzewski, G. A. Voth, 
 P. Salvador, J. J. Dannenberg, S. Dapprich, A. D. Daniels, 
 O. Farkas, J. B. Foresman, J. V. Ortiz, J. Cioslowski, 
 and D. J. Fox, Gaussian, Inc., Wallingford CT, 2013.
 
 ******************************************
 Gaussian 09:  ES64L-G09RevD.01 24-Apr-2013
                 2-Oct-2017 
 ******************************************
 %chk=m1-FC
 %mem=14GB
 %nproc=2
 Will use up to    2 processors via shared memory.
 ------------------------------------------------
 #p wb97xd 6-311+G(d) nosymm td=(nstates=5,50-50)
 ------------------------------------------------
 1/38=1/1;
 2/12=2,15=1,17=6,18=5,40=1/2;
 3/5=4,6=6,7=11,11=9,16=1,25=1,30=1,74=-58/1,2,8,3;
 4//1;
 5/5=2,38=5/2;
 8/6=1,10=2,108=5/1;
 9/41=5,42=1,48=2,70=2/14;
 6/7=2,8=2,9=2,10=2/1;
 99/5=1,9=1/99;
 Leave Link    1 at Mon Oct  2 15:00:17 2017, MaxMem=  1879048192 cpu:         0.1
 (Enter /share/apps/gaussian/g09_D01/g09/l101.exe)
 ------------------------------
 m1 tddft singlets and triplets
 ------------------------------
 Symbolic Z-matrix:
 Charge =  0 Multiplicity = 1
 C                     0.342    -0.13147   0.17917 
 C                     0.7397    0.30344   1.44624 
 C                     2.05614   0.16271   1.86754 
 C                     3.00223  -0.41201   1.02664 
 C                     2.62021  -0.8469   -0.23735 
 C                     1.30261  -0.70945  -0.65524 
 H                     0.01457   0.77824   2.10018 
 H                     2.34508   0.51372   2.85311 
 H                     4.03115  -0.51993   1.3541 
 H                     3.34895  -1.30396  -0.89927 
 H                     1.00969  -1.07571  -1.63441 
 C                    -1.06316   0.01553  -0.27151 
 C                    -1.36485   0.45269  -1.56643 
 C                    -2.67264   0.58743  -1.99337 
 C                    -3.73129   0.2859   -1.13413 
 C                    -3.45155  -0.14567   0.16118 
 C                    -2.1292   -0.27716   0.57457 
 H                    -0.5588    0.71341  -2.24537 
 H                    -2.90124   0.93272  -2.99557 
 O                    -4.97374   0.42888  -1.66057 
 H                    -4.24313  -0.39231   0.85792 
 H                    -1.93108  -0.63786   1.57941 
 C                    -6.11147   0.23393  -0.83654 
 H                    -6.93611   0.09602  -1.53904 
 H                    -6.01547  -0.69916  -0.26761 
 C                    -6.392     1.41931   0.07598 
 C                    -7.60291   1.17356   0.97334 
 H                    -5.51266   1.63645   0.69193 
 H                    -6.558     2.30462  -0.54766 
 C                    -7.94656   2.38194   1.83833 
 H                    -8.46963   0.90793   0.35567 
 H                    -7.41092   0.30568   1.61617 
 H                    -8.81077   2.18297   2.47744 
 H                    -7.10889   2.65586   2.48683 
 H                    -8.18394   3.25354   1.22096 
 
 NAtoms=     35 NQM=       35 NQMF=       0 NMMI=      0 NMMIF=      0
                NMic=       0 NMicF=      0.
                    Isotopes and Nuclear Properties:
 (Nuclear quadrupole moments (NQMom) in fm**2, nuclear magnetic moments (NMagM)
  in nuclear magnetons)

  Atom         1           2           3           4           5           6           7           8           9          10
 IAtWgt=          12          12          12          12          12          12           1           1           1           1
 AtmWgt=  12.0000000  12.0000000  12.0000000  12.0000000  12.0000000  12.0000000   1.0078250   1.0078250   1.0078250   1.0078250
 NucSpn=           0           0           0           0           0           0           1           1           1           1
 AtZEff=   0.0000000   0.0000000   0.0000000   0.0000000   0.0000000   0.0000000   0.0000000   0.0000000   0.0000000   0.0000000
 NQMom=    0.0000000   0.0000000   0.0000000   0.0000000   0.0000000   0.0000000   0.0000000   0.0000000   0.0000000   0.0000000
 NMagM=    0.0000000   0.0000000   0.0000000   0.0000000   0.0000000   0.0000000   2.7928460   2.7928460   2.7928460   2.7928460
 AtZNuc=   6.0000000   6.0000000   6.0000000   6.0000000   6.0000000   6.0000000   1.0000000   1.0000000   1.0000000   1.0000000

  Atom        11          12          13          14          15          16          17          18          19          20
 IAtWgt=           1          12          12          12          12          12          12           1           1          16
 AtmWgt=   1.0078250  12.0000000  12.0000000  12.0000000  12.0000000  12.0000000  12.0000000   1.0078250   1.0078250  15.9949146
 NucSpn=           1           0           0           0           0           0           0           1           1           0
 AtZEff=   0.0000000   0.0000000   0.0000000   0.0000000   0.0000000   0.0000000   0.0000000   0.0000000   0.0000000   0.0000000
 NQMom=    0.0000000   0.0000000   0.0000000   0.0000000   0.0000000   0.0000000   0.0000000   0.0000000   0.0000000   0.0000000
 NMagM=    2.7928460   0.0000000   0.0000000   0.0000000   0.0000000   0.0000000   0.0000000   2.7928460   2.7928460   0.0000000
 AtZNuc=   1.0000000   6.0000000   6.0000000   6.0000000   6.0000000   6.0000000   6.0000000   1.0000000   1.0000000   8.0000000

  Atom        21          22          23          24          25          26          27          28          29          30
 IAtWgt=           1           1          12           1           1          12          12           1           1          12
 AtmWgt=   1.0078250   1.0078250  12.0000000   1.0078250   1.0078250  12.0000000  12.0000000   1.0078250   1.0078250  12.0000000
 NucSpn=           1           1           0           1           1           0           0           1           1           0
 AtZEff=   0.0000000   0.0000000   0.0000000   0.0000000   0.0000000   0.0000000   0.0000000   0.0000000   0.0000000   0.0000000
 NQMom=    0.0000000   0.0000000   0.0000000   0.0000000   0.0000000   0.0000000   0.0000000   0.0000000   0.0000000   0.0000000
 NMagM=    2.7928460   2.7928460   0.0000000   2.7928460   2.7928460   0.0000000   0.0000000   2.7928460   2.7928460   0.0000000
 AtZNuc=   1.0000000   1.0000000   6.0000000   1.0000000   1.0000000   6.0000000   6.0000000   1.0000000   1.0000000   6.0000000

  Atom        31          32          33          34          35
 IAtWgt=           1           1           1           1           1
 AtmWgt=   1.0078250   1.0078250   1.0078250   1.0078250   1.0078250
 NucSpn=           1           1           1           1           1
 AtZEff=   0.0000000   0.0000000   0.0000000   0.0000000   0.0000000
 NQMom=    0.0000000   0.0000000   0.0000000   0.0000000   0.0000000
 NMagM=    2.7928460   2.7928460   2.7928460   2.7928460   2.7928460
 AtZNuc=   1.0000000   1.0000000   1.0000000   1.0000000   1.0000000
 Leave Link  101 at Mon Oct  2 15:00:17 2017, MaxMem=  1879048192 cpu:         0.1
 (Enter /share/apps/gaussian/g09_D01/g09/l202.exe)
                          Input orientation:                          
 ---------------------------------------------------------------------
 Center     Atomic      Atomic             Coordinates (Angstroms)
 Number     Number       Type             X           Y           Z
 ---------------------------------------------------------------------
      1          6           0        0.342004   -0.131469    0.179169
      2          6           0        0.739704    0.303436    1.446236
      3          6           0        2.056143    0.162706    1.867535
      4          6           0        3.002234   -0.412011    1.026643
      5          6           0        2.620212   -0.846902   -0.237352
      6          6           0        1.302609   -0.709452   -0.655239
      7          1           0        0.014573    0.778236    2.100177
      8          1           0        2.345081    0.513722    2.853109
      9          1           0        4.031153   -0.519928    1.354102
     10          1           0        3.348945   -1.303963   -0.899274
     11          1           0        1.009690   -1.075707   -1.634413
     12          6           0       -1.063162    0.015526   -0.271506
     13          6           0       -1.364853    0.452688   -1.566429
     14          6           0       -2.672640    0.587428   -1.993368
     15          6           0       -3.731293    0.285900   -1.134133
     16          6           0       -3.451545   -0.145668    0.161175
     17          6           0       -2.129202   -0.277158    0.574573
     18          1           0       -0.558804    0.713414   -2.245368
     19          1           0       -2.901240    0.932723   -2.995567
     20          8           0       -4.973735    0.428884   -1.660570
     21          1           0       -4.243127   -0.392313    0.857916
     22          1           0       -1.931075   -0.637860    1.579407
     23          6           0       -6.111471    0.233930   -0.836539
     24          1           0       -6.936106    0.096021   -1.539043
     25          1           0       -6.015472   -0.699160   -0.267614
     26          6           0       -6.392000    1.419306    0.075981
     27          6           0       -7.602907    1.173560    0.973339
     28          1           0       -5.512664    1.636447    0.691932
     29          1           0       -6.558000    2.304620   -0.547656
     30          6           0       -7.946560    2.381937    1.838334
     31          1           0       -8.469626    0.907930    0.355667
     32          1           0       -7.410924    0.305684    1.616171
     33          1           0       -8.810767    2.182970    2.477437
     34          1           0       -7.108891    2.655855    2.486825
     35          1           0       -8.183942    3.253545    1.220956
 ---------------------------------------------------------------------
                    Distance matrix (angstroms):
                    1          2          3          4          5
     1  C    0.000000
     2  C    1.397414   0.000000
     3  C    2.423921   1.389356   0.000000
     4  C    2.806018   2.409764   1.390139   0.000000
     5  C    2.423957   2.773816   2.401673   1.390235   0.000000
     6  C    1.397520   2.399792   2.773601   2.409548   1.389100
     7  H    2.150592   1.085766   2.144996   3.390469   3.859335
     8  H    3.402726   2.144935   1.085382   2.150537   3.387911
     9  H    3.891168   3.394120   2.151806   1.085150   2.151835
    10  H    3.402863   3.859182   3.387874   2.150568   1.085402
    11  H    2.150923   3.386049   3.859063   3.389977   2.144274
    12  C    1.482972   2.506762   3.785132   4.288989   3.783146
    13  C    2.510321   3.677987   4.855864   5.152007   4.397286
    14  C    3.784813   4.853413   6.119506   6.505654   5.758053
    15  C    4.300082   5.162211   6.520706   7.106083   6.513760
    16  C    3.793618   4.406773   5.774200   6.516996   6.125095
    17  C    2.506876   3.054097   4.402538   5.153076   4.851882
    18  H    2.720967   3.934736   4.904814   4.965242   4.070977
    19  H    4.661554   5.777724   6.987012   7.268940   6.423492
    20  O    5.652939   6.504719   7.870042   8.458386   7.830786
    21  H    4.642431   5.065451   6.403763   7.247352   6.965033
    22  H    2.717349   2.834931   4.076988   4.969315   4.904949
    23  C    6.543128   7.221807   8.603895   9.324608   8.818702
    24  H    7.481637   8.238505   9.616120  10.276743   9.690548
    25  H    6.398390   7.040943   8.393607   9.114635   8.637001
    26  C    6.911032   7.347378   8.726960   9.618166   9.298056
    27  C    8.090452   8.401185   9.752880  10.723148  10.490958
    28  H    6.137230   6.437235   7.800051   8.764228   8.554196
    29  H    7.353425   7.825396   9.199152  10.062633   9.709169
    30  C    8.818749   8.940083  10.245970  11.328772  11.242355
    31  H    8.874476   9.293359  10.659874  11.567023  11.243470
    32  H    7.897086   8.152400   9.471483  10.454496  10.265851
    33  H    9.716578   9.788132  11.069922  12.181368  12.133321
    34  H    8.283133   8.259367   9.518254  10.666714  10.693264
    35  H    9.232302   9.401348  10.715908  11.773045  11.647750
                    6          7          8          9         10
     6  C    0.000000
     7  H    3.385937   0.000000
     8  H    3.858939   2.463360   0.000000
     9  H    3.393865   4.286581   2.481591   0.000000
    10  H    2.144875   4.944724   4.288601   2.481496   0.000000
    11  H    1.085691   4.286552   4.944432   4.285948   2.462650
    12  C    2.503940   2.714428   4.650542   5.374138   4.647777
    13  C    3.048965   3.931005   5.770585   6.212275   5.074526
    14  C    4.390341   4.900473   6.976482   7.574472   6.405770
    15  C    5.153662   4.973396   7.271336   8.191229   7.260344
    16  C    4.856580   4.077659   6.425121   7.586430   6.979460
    17  C    3.671055   2.834977   5.082954   6.214224   5.765123
    18  H    2.831593   4.383688   5.870851   5.961965   4.599161
    19  H    5.083918   5.873026   7.868066   8.311912   6.961467
    20  O    6.457476   6.256875   8.599161   9.543401   8.535182
    21  H    5.757204   4.587091   6.943067   8.290126   7.845915
    22  H    3.931346   2.462128   4.608033   5.967649   5.870789
    23  C    7.476057   6.815349   9.230659  10.403847   9.584807
    24  H    8.325042   7.875359  10.276473  11.359157  10.399593
    25  H    7.328347   6.644590   9.006045  10.178249   9.405163
    26  C    8.017063   6.749261   9.212443  10.678780  10.161364
    27  C    9.246957   7.710515  10.145511  11.762833  11.383666
    28  H    7.332534   5.768018   8.226503   9.806776   9.471328
    29  H    8.419345   7.248419   9.697287  11.123170  10.549553
    30  C   10.065869   8.125273  10.508942  12.333731  12.192981
    31  H    9.956628   8.662665  11.106327  12.621613  12.089085
    32  H    9.061758   7.456244   9.836307  11.474818  11.166611
    33  H   10.975433   8.944397  11.286295  13.171274  13.092726
    34  H    9.589118   7.376902   9.700540  11.639125  11.683842
    35  H   10.450842   8.609055  11.001403  12.785358  12.580689
                   11         12         13         14         15
    11  H    0.000000
    12  C    2.710170   0.000000
    13  C    2.824724   1.399626   0.000000
    14  C    4.056405   2.425345   1.382295   0.000000
    15  C    4.957940   2.817117   2.411376   1.396406   0.000000
    16  C    4.898135   2.432606   2.774334   2.405448   1.393676
    17  C    3.920452   1.392104   2.387634   2.763540   2.409026
    18  H    2.456500   2.153499   1.085657   2.132529   3.388554
    19  H    4.602380   3.411787   2.152523   1.084384   2.138295
    20  O    6.169753   4.170485   3.610188   2.330435   1.356924
    21  H    5.854128   3.399133   3.856934   3.399433   2.165688
    22  H    4.378179   2.146175   3.377305   3.849152   3.384881
    23  C    7.284414   5.084524   4.807388   3.645377   2.399273
    24  H    8.032292   6.008710   5.582725   4.315673   3.235867
    25  H    7.166786   5.003615   4.964064   3.975935   2.634136
    26  C    7.995971   5.521581   5.376250   4.336804   3.135019
    27  C    9.275581   6.757140   6.773728   5.783808   4.496529
    28  H    7.436986   4.832563   4.868862   4.046852   2.886481
    29  H    8.359281   5.958981   5.606811   4.487188   3.522706
    30  C   10.209294   7.578423   7.657237   6.761393   5.567532
    31  H    9.886995   7.486350   7.374246   6.263045   5.005819
    32  H    9.131335   6.628846   6.834144   5.963178   4.593936
    33  H   11.134077   8.501758   8.648027   7.759540   6.514858
    34  H    9.839742   7.150564   7.367278   6.635574   5.489644
    35  H   10.555493   7.963524   7.881262   6.914804   5.846319
                   16         17         18         19         20
    16  C    0.000000
    17  C    1.391682   0.000000
    18  H    3.859718   3.376307   0.000000
    19  H    3.380944   3.847825   2.469393   0.000000
    20  O    2.442525   3.685882   4.462573   2.516209   0.000000
    21  H    1.082998   2.135936   4.942392   4.290188   2.747895
    22  H    2.136695   1.085841   4.282286   4.933390   4.570905
    23  C    2.866136   4.255692   5.748636   3.931323   1.418266
    24  H    3.884755   5.264310   6.445933   4.370546   1.994108
    25  H    2.657806   3.998807   5.973450   4.450080   2.073168
    26  C    3.332068   4.614979   6.317683   4.675102   2.451126
    27  C    4.431002   5.676711   7.758299   6.157588   3.795335
    28  H    2.775941   3.888891   5.832705   4.573009   2.698688
    29  H    4.019504   5.247783   6.434634   4.609367   2.695711
    30  C    5.422805   6.519933   8.604623   7.135970   4.989432
    31  H    5.131182   6.453939   8.329725   6.499100   4.063982
    32  H    4.242336   5.414907   7.875867   6.480629   4.085597
    33  H    6.285609   7.369968   9.620778   8.151037   5.909546
    34  H    5.160752   6.087411   8.310858   7.122509   5.169060
    35  H    5.922277   7.038718   8.752737   7.146483   5.156290
                   21         22         23         24         25
    21  H    0.000000
    22  H    2.434425   0.000000
    23  C    2.598859   4.906376   0.000000
    24  H    3.638134   5.942529   1.092041   0.000000
    25  H    2.121834   4.483028   1.097064   1.759662   0.000000
    26  C    2.917369   5.137322   1.522007   2.157646   2.178928
    27  C    3.708558   5.984834   2.526449   2.813855   2.750817
    28  H    2.398988   4.334497   2.159131   3.062082   2.574608
    29  H    3.822004   5.881413   2.137896   2.450249   3.065201
    30  C    4.730021   6.735895   3.890557   4.201560   4.202056
    31  H    4.450413   6.829323   2.726999   2.569203   2.999015
    32  H    3.331229   5.560609   2.776601   3.197622   2.550616
    33  H    5.488011   7.489573   4.697594   4.899165   4.863708
    34  H    4.489686   6.203366   4.231467   4.773910   4.476452
    35  H    5.380902   7.373592   4.200773   4.375460   4.747839
                   26         27         28         29         30
    26  C    0.000000
    27  C    1.527069   0.000000
    28  H    1.095344   2.159299   0.000000
    29  H    1.095564   2.164383   1.753785   0.000000
    30  C    2.539528   1.525283   2.791745   2.761707   0.000000
    31  H    2.157837   1.096941   3.063892   2.533979   2.155133
    32  H    2.156512   1.096950   2.495704   3.066818   2.155711
    33  H    3.492937   2.177187   3.790013   3.773718   1.093112
    34  H    2.802705   2.175291   2.609363   3.104017   1.094194
    35  H    2.808284   2.173765   3.167112   2.583048   1.094169
                   31         32         33         34         35
    31  H    0.000000
    32  H    1.752832   0.000000
    33  H    2.498802   2.495104   0.000000
    34  H    3.073870   2.524394   1.766378   0.000000
    35  H    2.516396   3.073050   1.765725   1.765047   0.000000
 Symmetry turned off by external request.
 Stoichiometry    C16H18O
 Framework group  C1[X(C16H18O)]
 Deg. of freedom    99
 Full point group                 C1      NOp   1
 Rotational constants (GHZ):      1.2448176      0.1698731      0.1539581
 Leave Link  202 at Mon Oct  2 15:00:17 2017, MaxMem=  1879048192 cpu:         0.0
 (Enter /share/apps/gaussian/g09_D01/g09/l301.exe)
 Standard basis: 6-311+G(d) (5D, 7F)
 Ernie: Thresh=  0.10000D-02 Tol=  0.10000D-05 Strict=F.
   428 basis functions,   702 primitive gaussians,   445 cartesian basis functions
    61 alpha electrons       61 beta electrons
       nuclear repulsion energy      1079.2858989160 Hartrees.
 IExCor= 4639 DFT=T Ex+Corr=wB97XD ExCW=0 ScaHFX=  1.000000
 ScaDFX=  1.000000  1.000000  1.000000  1.000000 ScalE2=  1.000000  1.000000
 IRadAn=      0 IRanWt=     -1 IRanGd=            0 ICorTp=0 IEmpDi=121
  HFx wShort=  0.000000 wLong=  0.200000 cFull=  0.222036 cShort=  0.000000 cLong=  0.777964
  DFx wShort=  0.000000 wLong=  0.200000 cFull=  0.000000 cShort=  0.000000 cLong=  1.000000
 NAtoms=   35 NActive=   35 NUniq=   35 SFac= 1.00D+00 NAtFMM=   60 NAOKFM=F Big=F
 Integral buffers will be    131072 words long.
 Raffenetti 1 integral format.
 Two-electron integral symmetry is turned off.
 R6Disp:  Grimme-D2 Dispersion energy=       -0.0226268764 Hartrees.
 Nuclear repulsion after empirical dispersion term =     1079.2632720396 Hartrees.
 Leave Link  301 at Mon Oct  2 15:00:18 2017, MaxMem=  1879048192 cpu:         0.0
 (Enter /share/apps/gaussian/g09_D01/g09/l302.exe)
 NPDir=0 NMtPBC=     1 NCelOv=     1 NCel=       1 NClECP=     1 NCelD=      1
         NCelK=      1 NCelE2=     1 NClLst=     1 CellRange=     0.0.
 One-electron integrals computed using PRISM.
 NBasis=   428 RedAO= T EigKep=  1.40D-06  NBF=   428
 NBsUse=   426 1.00D-06 EigRej=  8.77D-07 NBFU=   426
 Precomputing XC quadrature grid using
 IXCGrd= 4 IRadAn=           0 IRanWt=          -1 IRanGd=           0 AccXCQ= 0.00D+00.
 Generated NRdTot=       0 NPtTot=           0 NUsed=           0 NTot=          32
 NSgBfM=   437   437   437   437   437 MxSgAt=    35 MxSgA2=    35.
 Leave Link  302 at Mon Oct  2 15:00:19 2017, MaxMem=  1879048192 cpu:         1.4
 (Enter /share/apps/gaussian/g09_D01/g09/l308.exe)
 Leave Link  308 at Mon Oct  2 15:00:19 2017, MaxMem=  1879048192 cpu:         0.4
 (Enter /share/apps/gaussian/g09_D01/g09/l303.exe)
 DipDrv:  MaxL=1.
 Leave Link  303 at Mon Oct  2 15:00:19 2017, MaxMem=  1879048192 cpu:         0.3
 (Enter /share/apps/gaussian/g09_D01/g09/l401.exe)
 ExpMin= 4.38D-02 ExpMax= 8.59D+03 ExpMxC= 1.30D+03 IAcc=2 IRadAn=         4 AccDes= 0.00D+00
 Harris functional with IExCor= 4639 and IRadAn=       4 diagonalized for initial guess.
 HarFok:  IExCor= 4639 AccDes= 0.00D+00 IRadAn=         4 IDoV= 1 UseB2=F ITyADJ=14
 ICtDFT=  3500011 ScaDFX=  1.000000  1.000000  1.000000  1.000000
 FoFCou: FMM=F IPFlag=           0 FMFlag=      100000 FMFlg1=           0
         NFxFlg=           0 DoJE=T BraDBF=F KetDBF=T FulRan=T
         wScrn=  0.000000 ICntrl=     500 IOpCl=  0 I1Cent=   200000004 NGrid=           0
         NMat0=    1 NMatS0=      1 NMatT0=    0 NMatD0=    1 NMtDS0=    0 NMtDT0=    0
 Symmetry not used in FoFCou.
 Harris En= -664.032245245169    
 JPrj=0 DoOrth=F DoCkMO=F.
 Leave Link  401 at Mon Oct  2 15:00:29 2017, MaxMem=  1879048192 cpu:        12.9
 (Enter /share/apps/gaussian/g09_D01/g09/l502.exe)
 Closed shell SCF:
 Using DIIS extrapolation, IDIIS=  1040.
 Two-electron integral symmetry not used.
 IVT=      618035 IEndB=      618035 NGot=  1879048192 MDV=  1878645268
 LenX=  1878645268 LenY=  1878446798
 Requested convergence on RMS density matrix=1.00D-08 within 128 cycles.
 Requested convergence on MAX density matrix=1.00D-06.
 Requested convergence on             energy=1.00D-06.
 No special actions if energy rises.
 Fock matrices will be formed incrementally for  20 cycles.

 Cycle   1  Pass 1  IDiag  1:
 FoFJK:  IHMeth= 1 ICntrl=       0 DoSepK=T KAlg= 0 I1Cent=   0 FoldK=F
 IRaf=         1 NMat=   1 IRICut=       1 DoRegI=T DoRafI=F ISym2E= 0.
 FoFCou: FMM=F IPFlag=           0 FMFlag=      100000 FMFlg1=           0
         NFxFlg=           0 DoJE=T BraDBF=F KetDBF=F FulRan=T
         wScrn=  0.000000 ICntrl=     500 IOpCl=  0 I1Cent=           0 NGrid=           0
         NMat0=    1 NMatS0=      1 NMatT0=    0 NMatD0=    1 NMtDS0=    0 NMtDT0=    0
 Symmetry not used in FoFCou.
 E= -695.471241608806    
 DIIS: error= 6.58D-02 at cycle   1 NSaved=   1.
 NSaved= 1 IEnMin= 1 EnMin= -695.471241608806     IErMin= 1 ErrMin= 6.58D-02
 ErrMax= 6.58D-02  0.00D+00 EMaxC= 1.00D-01 BMatC= 1.49D+00 BMatP= 1.49D+00
 IDIUse=3 WtCom= 3.42D-01 WtEn= 6.58D-01
 Coeff-Com:  0.100D+01
 Coeff-En:   0.100D+01
 Coeff:      0.100D+01
 Gap=     0.400 Goal=   None    Shift=    0.000
 GapD=    0.400 DampG=1.000 DampE=0.500 DampFc=0.5000 IDamp=-1.
 Damping current iteration by 5.00D-01
 RMSDP=5.07D-02 MaxDP=5.20D+00              OVMax= 1.10D-01

 Cycle   2  Pass 1  IDiag  1:
 RMSU=  5.98D-03    CP:  7.72D-01
 E= -695.573232284321     Delta-E=       -0.101990675515 Rises=F Damp=T
 DIIS: error= 2.93D-02 at cycle   2 NSaved=   2.
 NSaved= 2 IEnMin= 2 EnMin= -695.573232284321     IErMin= 2 ErrMin= 2.93D-02
 ErrMax= 2.93D-02  0.00D+00 EMaxC= 1.00D-01 BMatC= 3.20D-01 BMatP= 1.49D+00
 IDIUse=3 WtCom= 7.07D-01 WtEn= 2.93D-01
 Coeff-Com: -0.632D+00 0.163D+01
 Coeff-En:   0.000D+00 0.100D+01
 Coeff:     -0.447D+00 0.145D+01
 Gap=     0.351 Goal=   None    Shift=    0.000
 RMSDP=2.46D-02 MaxDP=2.77D+00 DE=-1.02D-01 OVMax= 1.75D-01

 Cycle   3  Pass 1  IDiag  1:
 RMSU=  6.61D-03    CP:  5.54D-01  1.28D+00
 E= -695.628744936580     Delta-E=       -0.055512652260 Rises=F Damp=F
 DIIS: error= 1.47D-02 at cycle   3 NSaved=   3.
 NSaved= 3 IEnMin= 3 EnMin= -695.628744936580     IErMin= 3 ErrMin= 1.47D-02
 ErrMax= 1.47D-02  0.00D+00 EMaxC= 1.00D-01 BMatC= 7.82D-02 BMatP= 3.20D-01
 IDIUse=3 WtCom= 8.53D-01 WtEn= 1.47D-01
 Coeff-Com: -0.372D+00 0.795D+00 0.577D+00
 Coeff-En:   0.000D+00 0.000D+00 0.100D+01
 Coeff:     -0.317D+00 0.678D+00 0.639D+00
 Gap=     0.358 Goal=   None    Shift=    0.000
 RMSDP=5.22D-03 MaxDP=5.27D-01 DE=-5.55D-02 OVMax= 6.77D-02

 Cycle   4  Pass 1  IDiag  1:
 RMSU=  1.95D-03    CP:  5.27D-01  1.50D+00  4.52D-01
 E= -695.682954505873     Delta-E=       -0.054209569292 Rises=F Damp=F
 DIIS: error= 3.82D-03 at cycle   4 NSaved=   4.
 NSaved= 4 IEnMin= 4 EnMin= -695.682954505873     IErMin= 4 ErrMin= 3.82D-03
 ErrMax= 3.82D-03  0.00D+00 EMaxC= 1.00D-01 BMatC= 5.40D-03 BMatP= 7.82D-02
 IDIUse=3 WtCom= 9.62D-01 WtEn= 3.82D-02
 Coeff-Com: -0.132D+00 0.284D+00 0.328D+00 0.520D+00
 Coeff-En:   0.000D+00 0.000D+00 0.000D+00 0.100D+01
 Coeff:     -0.127D+00 0.273D+00 0.315D+00 0.538D+00
 Gap=     0.322 Goal=   None    Shift=    0.000
 RMSDP=1.04D-03 MaxDP=9.14D-02 DE=-5.42D-02 OVMax= 1.29D-02

 Cycle   5  Pass 1  IDiag  1:
 RMSU=  5.42D-04    CP:  5.25D-01  1.51D+00  5.75D-01  8.45D-01
 E= -695.686675149613     Delta-E=       -0.003720643740 Rises=F Damp=F
 DIIS: error= 3.83D-04 at cycle   5 NSaved=   5.
 NSaved= 5 IEnMin= 5 EnMin= -695.686675149613     IErMin= 5 ErrMin= 3.83D-04
 ErrMax= 3.83D-04  0.00D+00 EMaxC= 1.00D-01 BMatC= 3.95D-05 BMatP= 5.40D-03
 IDIUse=3 WtCom= 9.96D-01 WtEn= 3.83D-03
 Coeff-Com:  0.249D-01-0.532D-01-0.135D-01 0.928D-01 0.949D+00
 Coeff-En:   0.000D+00 0.000D+00 0.000D+00 0.000D+00 0.100D+01
 Coeff:      0.248D-01-0.530D-01-0.134D-01 0.924D-01 0.949D+00
 Gap=     0.322 Goal=   None    Shift=    0.000
 RMSDP=3.28D-04 MaxDP=2.05D-02 DE=-3.72D-03 OVMax= 3.74D-03

 Cycle   6  Pass 1  IDiag  1:
 RMSU=  2.51D-04    CP:  5.24D-01  1.49D+00  5.70D-01  9.26D-01  9.37D-01
 E= -695.686727817882     Delta-E=       -0.000052668269 Rises=F Damp=F
 DIIS: error= 2.62D-04 at cycle   6 NSaved=   6.
 NSaved= 6 IEnMin= 6 EnMin= -695.686727817882     IErMin= 6 ErrMin= 2.62D-04
 ErrMax= 2.62D-04  0.00D+00 EMaxC= 1.00D-01 BMatC= 1.30D-05 BMatP= 3.95D-05
 IDIUse=3 WtCom= 9.97D-01 WtEn= 2.62D-03
 Coeff-Com:  0.186D-01-0.399D-01-0.249D-01 0.851D-02 0.447D+00 0.590D+00
 Coeff-En:   0.000D+00 0.000D+00 0.000D+00 0.000D+00 0.000D+00 0.100D+01
 Coeff:      0.185D-01-0.398D-01-0.249D-01 0.849D-02 0.446D+00 0.592D+00
 Gap=     0.322 Goal=   None    Shift=    0.000
 RMSDP=1.14D-04 MaxDP=7.38D-03 DE=-5.27D-05 OVMax= 1.22D-03

 Cycle   7  Pass 1  IDiag  1:
 RMSU=  6.19D-05    CP:  5.25D-01  1.48D+00  5.72D-01  9.51D-01  1.05D+00
                    CP:  9.12D-01
 E= -695.686742814905     Delta-E=       -0.000014997023 Rises=F Damp=F
 DIIS: error= 8.69D-05 at cycle   7 NSaved=   7.
 NSaved= 7 IEnMin= 7 EnMin= -695.686742814905     IErMin= 7 ErrMin= 8.69D-05
 ErrMax= 8.69D-05  0.00D+00 EMaxC= 1.00D-01 BMatC= 8.12D-07 BMatP= 1.30D-05
 IDIUse=1 WtCom= 1.00D+00 WtEn= 0.00D+00
 Coeff-Com:  0.162D-02-0.346D-02-0.502D-02-0.102D-01-0.250D-01 0.159D+00
 Coeff-Com:  0.883D+00
 Coeff:      0.162D-02-0.346D-02-0.502D-02-0.102D-01-0.250D-01 0.159D+00
 Coeff:      0.883D+00
 Gap=     0.322 Goal=   None    Shift=    0.000
 RMSDP=6.68D-05 MaxDP=7.19D-03 DE=-1.50D-05 OVMax= 8.86D-04

 Cycle   8  Pass 1  IDiag  1:
 RMSU=  2.37D-05    CP:  5.25D-01  1.48D+00  5.71D-01  9.63D-01  1.07D+00
                    CP:  1.03D+00  1.05D+00
 E= -695.686744501048     Delta-E=       -0.000001686143 Rises=F Damp=F
 DIIS: error= 2.56D-05 at cycle   8 NSaved=   8.
 NSaved= 8 IEnMin= 8 EnMin= -695.686744501048     IErMin= 8 ErrMin= 2.56D-05
 ErrMax= 2.56D-05  0.00D+00 EMaxC= 1.00D-01 BMatC= 1.67D-07 BMatP= 8.12D-07
 IDIUse=1 WtCom= 1.00D+00 WtEn= 0.00D+00
 Coeff-Com: -0.118D-02 0.257D-02 0.806D-03-0.455D-02-0.564D-01 0.133D-05
 Coeff-Com:  0.358D+00 0.701D+00
 Coeff:     -0.118D-02 0.257D-02 0.806D-03-0.455D-02-0.564D-01 0.133D-05
 Coeff:      0.358D+00 0.701D+00
 Gap=     0.322 Goal=   None    Shift=    0.000
 RMSDP=2.02D-05 MaxDP=2.12D-03 DE=-1.69D-06 OVMax= 2.03D-04

 Cycle   9  Pass 1  IDiag  1:
 RMSU=  8.29D-06    CP:  5.25D-01  1.48D+00  5.70D-01  9.64D-01  1.06D+00
                    CP:  1.06D+00  1.19D+00  7.88D-01
 E= -695.686744765261     Delta-E=       -0.000000264213 Rises=F Damp=F
 DIIS: error= 7.07D-06 at cycle   9 NSaved=   9.
 NSaved= 9 IEnMin= 9 EnMin= -695.686744765261     IErMin= 9 ErrMin= 7.07D-06
 ErrMax= 7.07D-06  0.00D+00 EMaxC= 1.00D-01 BMatC= 1.87D-08 BMatP= 1.67D-07
 IDIUse=1 WtCom= 1.00D+00 WtEn= 0.00D+00
 Coeff-Com: -0.484D-03 0.104D-02 0.104D-02 0.846D-04-0.123D-01-0.277D-01
 Coeff-Com: -0.467D-01 0.133D+00 0.952D+00
 Coeff:     -0.484D-03 0.104D-02 0.104D-02 0.846D-04-0.123D-01-0.277D-01
 Coeff:     -0.467D-01 0.133D+00 0.952D+00
 Gap=     0.322 Goal=   None    Shift=    0.000
 RMSDP=1.19D-05 MaxDP=1.24D-03 DE=-2.64D-07 OVMax= 1.73D-04

 Cycle  10  Pass 1  IDiag  1:
 RMSU=  3.00D-06    CP:  5.25D-01  1.48D+00  5.70D-01  9.64D-01  1.06D+00
                    CP:  1.08D+00  1.24D+00  8.21D-01  1.27D+00
 E= -695.686744811303     Delta-E=       -0.000000046042 Rises=F Damp=F
 DIIS: error= 3.96D-06 at cycle  10 NSaved=  10.
 NSaved=10 IEnMin=10 EnMin= -695.686744811303     IErMin=10 ErrMin= 3.96D-06
 ErrMax= 3.96D-06  0.00D+00 EMaxC= 1.00D-01 BMatC= 2.76D-09 BMatP= 1.87D-08
 IDIUse=1 WtCom= 1.00D+00 WtEn= 0.00D+00
 Coeff-Com: -0.396D-04 0.808D-04 0.329D-03 0.678D-03 0.221D-02-0.946D-02
 Coeff-Com: -0.544D-01-0.515D-01 0.322D+00 0.790D+00
 Coeff:     -0.396D-04 0.808D-04 0.329D-03 0.678D-03 0.221D-02-0.946D-02
 Coeff:     -0.544D-01-0.515D-01 0.322D+00 0.790D+00
 Gap=     0.322 Goal=   None    Shift=    0.000
 RMSDP=2.50D-06 MaxDP=2.28D-04 DE=-4.60D-08 OVMax= 4.76D-05

 Cycle  11  Pass 1  IDiag  1:
 RMSU=  8.74D-07    CP:  5.25D-01  1.48D+00  5.70D-01  9.64D-01  1.06D+00
                    CP:  1.08D+00  1.26D+00  8.27D-01  1.39D+00  1.04D+00
 E= -695.686744816989     Delta-E=       -0.000000005685 Rises=F Damp=F
 DIIS: error= 8.61D-07 at cycle  11 NSaved=  11.
 NSaved=11 IEnMin=11 EnMin= -695.686744816989     IErMin=11 ErrMin= 8.61D-07
 ErrMax= 8.61D-07  0.00D+00 EMaxC= 1.00D-01 BMatC= 4.04D-10 BMatP= 2.76D-09
 IDIUse=1 WtCom= 1.00D+00 WtEn= 0.00D+00
 Coeff-Com:  0.648D-04-0.140D-03-0.467D-04 0.294D-03 0.256D-02 0.117D-02
 Coeff-Com: -0.826D-02-0.392D-01-0.484D-01 0.255D+00 0.837D+00
 Coeff:      0.648D-04-0.140D-03-0.467D-04 0.294D-03 0.256D-02 0.117D-02
 Coeff:     -0.826D-02-0.392D-01-0.484D-01 0.255D+00 0.837D+00
 Gap=     0.322 Goal=   None    Shift=    0.000
 RMSDP=1.23D-06 MaxDP=1.27D-04 DE=-5.69D-09 OVMax= 1.99D-05

 Cycle  12  Pass 1  IDiag  1:
 RMSU=  3.39D-07    CP:  5.25D-01  1.48D+00  5.70D-01  9.64D-01  1.06D+00
                    CP:  1.08D+00  1.26D+00  8.11D-01  1.45D+00  1.18D+00
                    CP:  1.14D+00
 E= -695.686744817814     Delta-E=       -0.000000000826 Rises=F Damp=F
 DIIS: error= 3.08D-07 at cycle  12 NSaved=  12.
 NSaved=12 IEnMin=12 EnMin= -695.686744817814     IErMin=12 ErrMin= 3.08D-07
 ErrMax= 3.08D-07  0.00D+00 EMaxC= 1.00D-01 BMatC= 4.28D-11 BMatP= 4.04D-10
 IDIUse=1 WtCom= 1.00D+00 WtEn= 0.00D+00
 Coeff-Com:  0.248D-04-0.527D-04-0.510D-04 0.368D-04 0.431D-03 0.135D-02
 Coeff-Com:  0.455D-02-0.494D-02-0.529D-01-0.236D-01 0.213D+00 0.862D+00
 Coeff:      0.248D-04-0.527D-04-0.510D-04 0.368D-04 0.431D-03 0.135D-02
 Coeff:      0.455D-02-0.494D-02-0.529D-01-0.236D-01 0.213D+00 0.862D+00
 Gap=     0.322 Goal=   None    Shift=    0.000
 RMSDP=4.64D-07 MaxDP=5.51D-05 DE=-8.26D-10 OVMax= 5.41D-06

 Cycle  13  Pass 1  IDiag  1:
 RMSU=  1.49D-07    CP:  5.25D-01  1.48D+00  5.70D-01  9.64D-01  1.06D+00
                    CP:  1.08D+00  1.26D+00  8.03D-01  1.46D+00  1.22D+00
                    CP:  1.30D+00  1.12D+00
 E= -695.686744817972     Delta-E=       -0.000000000158 Rises=F Damp=F
 DIIS: error= 1.50D-07 at cycle  13 NSaved=  13.
 NSaved=13 IEnMin=13 EnMin= -695.686744817972     IErMin=13 ErrMin= 1.50D-07
 ErrMax= 1.50D-07  0.00D+00 EMaxC= 1.00D-01 BMatC= 7.13D-12 BMatP= 4.28D-11
 IDIUse=1 WtCom= 1.00D+00 WtEn= 0.00D+00
 Coeff-Com: -0.115D-06 0.519D-06-0.927D-05-0.212D-04-0.224D-03 0.265D-03
 Coeff-Com:  0.275D-02 0.413D-02-0.108D-01-0.430D-01-0.523D-01 0.305D+00
 Coeff-Com:  0.794D+00
 Coeff:     -0.115D-06 0.519D-06-0.927D-05-0.212D-04-0.224D-03 0.265D-03
 Coeff:      0.275D-02 0.413D-02-0.108D-01-0.430D-01-0.523D-01 0.305D+00
 Coeff:      0.794D+00
 Gap=     0.322 Goal=   None    Shift=    0.000
 RMSDP=1.09D-07 MaxDP=9.29D-06 DE=-1.58D-10 OVMax= 1.79D-06

 Cycle  14  Pass 1  IDiag  1:
 RMSU=  4.03D-08    CP:  5.25D-01  1.48D+00  5.70D-01  9.64D-01  1.06D+00
                    CP:  1.08D+00  1.26D+00  8.02D-01  1.46D+00  1.23D+00
                    CP:  1.32D+00  1.26D+00  1.19D+00
 E= -695.686744817934     Delta-E=        0.000000000038 Rises=F Damp=F
 DIIS: error= 3.13D-08 at cycle  14 NSaved=  14.
 NSaved=14 IEnMin=13 EnMin= -695.686744817972     IErMin=14 ErrMin= 3.13D-08
 ErrMax= 3.13D-08  0.00D+00 EMaxC= 1.00D-01 BMatC= 7.48D-13 BMatP= 7.13D-12
 IDIUse=1 WtCom= 1.00D+00 WtEn= 0.00D+00
 Coeff-Com: -0.122D-05 0.267D-05 0.974D-06-0.112D-04-0.915D-04-0.473D-04
 Coeff-Com:  0.190D-03 0.158D-02 0.227D-02-0.829D-02-0.390D-01-0.113D-01
 Coeff-Com:  0.241D+00 0.814D+00
 Coeff:     -0.122D-05 0.267D-05 0.974D-06-0.112D-04-0.915D-04-0.473D-04
 Coeff:      0.190D-03 0.158D-02 0.227D-02-0.829D-02-0.390D-01-0.113D-01
 Coeff:      0.241D+00 0.814D+00
 Gap=     0.322 Goal=   None    Shift=    0.000
 RMSDP=5.23D-08 MaxDP=4.05D-06 DE= 3.82D-11 OVMax= 4.43D-07

 Cycle  15  Pass 1  IDiag  1:
 RMSU=  1.55D-08    CP:  5.25D-01  1.48D+00  5.70D-01  9.64D-01  1.06D+00
                    CP:  1.08D+00  1.26D+00  8.01D-01  1.46D+00  1.23D+00
                    CP:  1.33D+00  1.29D+00  1.33D+00  1.20D+00
 E= -695.686744817964     Delta-E=       -0.000000000030 Rises=F Damp=F
 DIIS: error= 2.62D-08 at cycle  15 NSaved=  15.
 NSaved=15 IEnMin=13 EnMin= -695.686744817972     IErMin=15 ErrMin= 2.62D-08
 ErrMax= 2.62D-08  0.00D+00 EMaxC= 1.00D-01 BMatC= 7.35D-14 BMatP= 7.48D-13
 IDIUse=1 WtCom= 1.00D+00 WtEn= 0.00D+00
 Coeff-Com: -0.367D-06 0.780D-06 0.117D-05-0.205D-05-0.111D-04-0.395D-04
 Coeff-Com: -0.212D-03 0.190D-03 0.177D-02 0.142D-02-0.919D-02-0.333D-01
 Coeff-Com:  0.148D-01 0.275D+00 0.750D+00
 Coeff:     -0.367D-06 0.780D-06 0.117D-05-0.205D-05-0.111D-04-0.395D-04
 Coeff:     -0.212D-03 0.190D-03 0.177D-02 0.142D-02-0.919D-02-0.333D-01
 Coeff:      0.148D-01 0.275D+00 0.750D+00
 Gap=     0.322 Goal=   None    Shift=    0.000
 RMSDP=1.96D-08 MaxDP=2.48D-06 DE=-3.05D-11 OVMax= 1.55D-07

 Cycle  16  Pass 1  IDiag  1:
 RMSU=  5.35D-09    CP:  5.25D-01  1.48D+00  5.70D-01  9.64D-01  1.06D+00
                    CP:  1.08D+00  1.26D+00  8.01D-01  1.47D+00  1.23D+00
                    CP:  1.33D+00  1.30D+00  1.37D+00  1.34D+00  1.18D+00
 E= -695.686744817981     Delta-E=       -0.000000000016 Rises=F Damp=F
 DIIS: error= 3.79D-09 at cycle  16 NSaved=  16.
 NSaved=16 IEnMin=16 EnMin= -695.686744817981     IErMin=16 ErrMin= 3.79D-09
 ErrMax= 3.79D-09  0.00D+00 EMaxC= 1.00D-01 BMatC= 9.13D-15 BMatP= 7.35D-14
 IDIUse=1 WtCom= 1.00D+00 WtEn= 0.00D+00
 Coeff-Com: -0.587D-07 0.115D-06 0.351D-06 0.804D-06 0.542D-05-0.626D-05
 Coeff-Com: -0.805D-04-0.953D-04 0.257D-03 0.141D-02 0.167D-02-0.819D-02
 Coeff-Com: -0.229D-01-0.274D-01 0.235D+00 0.820D+00
 Coeff:     -0.587D-07 0.115D-06 0.351D-06 0.804D-06 0.542D-05-0.626D-05
 Coeff:     -0.805D-04-0.953D-04 0.257D-03 0.141D-02 0.167D-02-0.819D-02
 Coeff:     -0.229D-01-0.274D-01 0.235D+00 0.820D+00
 Gap=     0.322 Goal=   None    Shift=    0.000
 RMSDP=7.08D-09 MaxDP=7.91D-07 DE=-1.61D-11 OVMax= 4.93D-08

 SCF Done:  E(RwB97XD) =  -695.686744818     A.U. after   16 cycles
            NFock= 16  Conv=0.71D-08     -V/T= 2.0042
 KE= 6.928004679631D+02 PE=-3.774808125755D+03 EE= 1.307057640935D+03
 Leave Link  502 at Mon Oct  2 15:19:45 2017, MaxMem=  1879048192 cpu:      1175.5
 (Enter /share/apps/gaussian/g09_D01/g09/l801.exe)
 DoSCS=F DFT=T ScalE2(SS,OS)=  1.000000  1.000000
 ExpMin= 4.38D-02 ExpMax= 8.59D+03 ExpMxC= 1.30D+03 IAcc=3 IRadAn=         5 AccDes= 0.00D+00
 HarFok:  IExCor=  205 AccDes= 0.00D+00 IRadAn=         5 IDoV=-2 UseB2=F ITyADJ=14
 ICtDFT= 12500011 ScaDFX=  1.000000  1.000000  1.000000  1.000000
 Largest valence mixing into a core orbital is  5.54D-05
 Largest core mixing into a valence orbital is  1.52D-05
 Range of M.O.s used for correlation:    18   426
 NBasis=   428 NAE=    61 NBE=    61 NFC=    17 NFV=     0
 NROrb=    409 NOA=    44 NOB=    44 NVA=   365 NVB=   365

 **** Warning!!: The largest alpha MO coefficient is  0.13170117D+03

 Leave Link  801 at Mon Oct  2 15:19:46 2017, MaxMem=  1879048192 cpu:         1.1
 (Enter /share/apps/gaussian/g09_D01/g09/l914.exe)
 RHF ground state
 MDV=  1879048192 DFT=T DoStab=F Mixed=T DoRPA=T DoScal=F NonHer=T
 Would need an additional         23504000000 words for in-memory AO integral storage.
 Making orbital integer symmetry assigments:
    40 initial guesses have been made.
 Convergence on wavefunction:    0.001000000000000
 Davidson Disk Diagonalization:  ConvIn= 1.00D-03 SkipCon=T Conv= 1.00D-03.
 Max sub-space:   200 roots to seek:    40 dimension of matrix:        32120
 Iteration     1 Dimension    40 NMult     0 NNew     40
 CISAX will form    40 AO SS matrices at one time.
 NMat=    40 NSing=    20 JSym2X= 0.
 FoFJK:  IHMeth= 1 ICntrl=       0 DoSepK=T KAlg= 0 I1Cent=   0 FoldK=F
 IRaf=         1 NMat=  80 IRICut=       1 DoRegI=T DoRafI=F ISym2E= 0.
 FoFCou: FMM=F IPFlag=           0 FMFlag=      100000 FMFlg1=           0
         NFxFlg=           0 DoJE=F BraDBF=F KetDBF=F FulRan=T
         wScrn=  0.000000 ICntrl=     500 IOpCl=  0 I1Cent=           0 NGrid=           0
         NMat0=   20 NMatS0=     20 NMatT0=    0 NMatD0=   20 NMtDS0=    0 NMtDT0=    0
 Symmetry not used in FoFCou.
 New state      1 was old state      2
 New state      2 was old state      4
 New state      3 was old state     28
 New state      4 was old state     40
 New state      5 was old state     36
 New state      6 was old state      3
 New state      7 was old state     20
 New state      8 was old state      6
 New state      9 was old state      1
 New state     10 was old state      5
 Excitation Energies [eV] at current iteration:
 Root      1 :     4.264093701082960
 Root      2 :     4.513556284393279
 Root      3 :     4.969978461109015
 Root      4 :     5.156303193154157
 Root      5 :     5.431358792431603
 Root      6 :     5.521467298350612
 Root      7 :     5.543274461510175
 Root      8 :     5.713737963131786
 Root      9 :     5.737061031898811
 Root     10 :     5.814696125487123
 Root     11 :     6.059079541282051
 Root     12 :     6.346257943410262
 Root     13 :     6.348989947297673
 Root     14 :     6.740579867916888
 Root     15 :     6.751979002852578
 Root     16 :     6.907392816863408
 Root     17 :     6.947843798781848
 Root     18 :     7.007287068717708
 Root     19 :     7.028616995310224
 Root     20 :     7.096133142681221
 Root     21 :     7.138566593717791
 Root     22 :     7.210178761642465
 Root     23 :     7.287347486904582
 Root     24 :     7.346770215904900
 Root     25 :     7.371251927820632
 Root     26 :     7.384615102906101
 Root     27 :     7.393966088859936
 Root     28 :     7.432534148733510
 Root     29 :     7.560103689541843
 Root     30 :     7.573314140985796
 Root     31 :     7.681564970846487
 Root     32 :     7.714382168384162
 Root     33 :     7.754775895411045
 Root     34 :     7.822759172905665
 Root     35 :     7.845591502791327
 Root     36 :     7.960762833734388
 Root     37 :     7.971856236979583
 Root     38 :     8.209374953716377
 Root     39 :     8.216942028337906
 Root     40 :     8.687541979039631
 Vector   7 SDiff=9.77D-02 TDiff=2.62D+00 assumed to be singlet.
 Vector   8 SDiff=1.65D+00 TDiff=1.84D+00 assumed to be singlet.
 Vector  17 SDiff=7.52D-02 TDiff=2.18D+00 assumed to be singlet.
 Vector  18 SDiff=1.70D+00 TDiff=1.83D+00 assumed to be singlet.
 Iteration     2 Dimension    60 NMult    40 NNew     20
 CISAX will form    20 AO SS matrices at one time.
 NMat=    20 NSing=    10 JSym2X= 0.
 Root      1 not converged, maximum delta is    0.168003229066175
 New state      2 was old state      3
 Root      2 not converged, maximum delta is    0.267845504830312
 New state      3 was old state      2
 Root      3 not converged, maximum delta is    0.196515213419973
 Root      4 not converged, maximum delta is    0.230975036469882
 Root      5 not converged, maximum delta is    0.225912408733911
 Root      6 not converged, maximum delta is    0.103162945338843
 New state      7 was old state      9
 Root      7 not converged, maximum delta is    0.045414518701761
 New state      8 was old state     10
 Root      8 not converged, maximum delta is    0.189184533385765
 New state      9 was old state     12
 Root      9 not converged, maximum delta is    0.073751754798935
 New state     10 was old state     14
 Root     10 not converged, maximum delta is    0.278733029452799
 Excitation Energies [eV] at current iteration:
 Root      1 :     3.403694748576293   Change is   -0.860398952506667
 Root      2 :     3.946430131731213   Change is   -1.023548329377802
 Root      3 :     4.175957410205998   Change is   -0.337598874187282
 Root      4 :     4.629026486307150   Change is   -0.527276706847007
 Root      5 :     4.853053111135568   Change is   -0.578305681296035
 Root      6 :     5.038878644721951   Change is   -0.482588653628661
 Root      7 :     5.180444973922728   Change is   -0.556616057976083
 Root      8 :     5.351059013451121   Change is   -0.463637112036001
 Root      9 :     6.098760890511776   Change is   -0.247497052898486
 Root     10 :     6.311462667318751   Change is   -0.429117200598137
 Iteration     3 Dimension    80 NMult    60 NNew     20
 CISAX will form    20 AO SS matrices at one time.
 NMat=    20 NSing=    10 JSym2X= 0.
 Root      1 not converged, maximum delta is    0.013624656775577
 Root      2 not converged, maximum delta is    0.029673197111790
 Root      3 not converged, maximum delta is    0.022197679703761
 Root      4 not converged, maximum delta is    0.027465278171484
 Root      5 not converged, maximum delta is    0.040889509866387
 Root      6 not converged, maximum delta is    0.032140707523107
 Root      7 not converged, maximum delta is    0.031919137332515
 Root      8 not converged, maximum delta is    0.070120869892841
 Root      9 not converged, maximum delta is    0.024533560408149
 Root     10 not converged, maximum delta is    0.048935948542364
 Excitation Energies [eV] at current iteration:
 Root      1 :     3.368262023559219   Change is   -0.035432725017074
 Root      2 :     3.900379873586440   Change is   -0.046050258144773
 Root      3 :     4.148901173946691   Change is   -0.027056236259306
 Root      4 :     4.597401922442018   Change is   -0.031624563865132
 Root      5 :     4.819086115942468   Change is   -0.033966995193100
 Root      6 :     4.990222869154065   Change is   -0.048655775567886
 Root      7 :     5.150020346955532   Change is   -0.030424626967195
 Root      8 :     5.250349567662632   Change is   -0.100709445788490
 Root      9 :     6.058851246381064   Change is   -0.039909644130712
 Root     10 :     6.165429789555472   Change is   -0.146032877763279
 Iteration     4 Dimension   100 NMult    80 NNew     20
 CISAX will form    20 AO SS matrices at one time.
 NMat=    20 NSing=    10 JSym2X= 0.
 Root      1 not converged, maximum delta is    0.003283511098926
 Root      2 not converged, maximum delta is    0.008073595090040
 Root      3 not converged, maximum delta is    0.004312281647795
 Root      4 not converged, maximum delta is    0.019899099190653
 Root      5 not converged, maximum delta is    0.063341770887258
 Root      6 not converged, maximum delta is    0.009247484182005
 Root      7 not converged, maximum delta is    0.006330054024603
 Root      8 not converged, maximum delta is    0.008424864113409
 Root      9 not converged, maximum delta is    0.021095719170249
 Root     10 not converged, maximum delta is    0.032706209262534
 Excitation Energies [eV] at current iteration:
 Root      1 :     3.366891115200677   Change is   -0.001370908358542
 Root      2 :     3.897018281120112   Change is   -0.003361592466328
 Root      3 :     4.147130524409761   Change is   -0.001770649536930
 Root      4 :     4.592989691652704   Change is   -0.004412230789314
 Root      5 :     4.807872109822232   Change is   -0.011214006120236
 Root      6 :     4.984481751944199   Change is   -0.005741117209866
 Root      7 :     5.144347336536897   Change is   -0.005673010418636
 Root      8 :     5.243152688942467   Change is   -0.007196878720165
 Root      9 :     6.048837440975689   Change is   -0.010013805405375
 Root     10 :     6.139293629740792   Change is   -0.026136159814680
 Iteration     5 Dimension   120 NMult   100 NNew     20
 CISAX will form    20 AO SS matrices at one time.
 NMat=    20 NSing=    10 JSym2X= 0.
 Root      1 has converged.
 Root      2 has converged.
 Root      3 not converged, maximum delta is    0.001211531777450
 Root      4 not converged, maximum delta is    0.009846754571384
 Root      5 not converged, maximum delta is    0.389824493575475
 Root      6 not converged, maximum delta is    0.001942138289256
 Root      7 not converged, maximum delta is    0.002496536541239
 Root      8 not converged, maximum delta is    0.001737124649583
 Root      9 not converged, maximum delta is    0.005681158705887
 Root     10 not converged, maximum delta is    0.009506206605871
 Excitation Energies [eV] at current iteration:
 Root      1 :     3.366835555590202   Change is   -0.000055559610474
 Root      2 :     3.896857561895886   Change is   -0.000160719224227
 Root      3 :     4.146987037289886   Change is   -0.000143487119875
 Root      4 :     4.592424401097876   Change is   -0.000565290554828
 Root      5 :     4.698140029701303   Change is   -0.109732080120929
 Root      6 :     4.984078843120610   Change is   -0.000402908823589
 Root      7 :     5.143616722230806   Change is   -0.000730614306091
 Root      8 :     5.242619130596318   Change is   -0.000533558346149
 Root      9 :     6.047218018629108   Change is   -0.001619422346581
 Root     10 :     6.133251173974725   Change is   -0.006042455766068
 Iteration     6 Dimension   136 NMult   120 NNew     16
 CISAX will form    16 AO SS matrices at one time.
 NMat=    16 NSing=    10 JSym2X= 0.
 Root      1 has converged.
 Root      2 has converged.
 Root      3 has converged.
 Root      4 not converged, maximum delta is    0.016934666136717
 Root      5 not converged, maximum delta is    0.046996368220649
 Root      6 has converged.
 Root      7 has converged.
 Root      8 has converged.
 Root      9 not converged, maximum delta is    0.001594199963800
 Root     10 not converged, maximum delta is    0.004908373969540
 Excitation Energies [eV] at current iteration:
 Root      1 :     3.366834449508999   Change is   -0.000001106081204
 Root      2 :     3.896853492152364   Change is   -0.000004069743521
 Root      3 :     4.146974573410494   Change is   -0.000012463879391
 Root      4 :     4.592260464341831   Change is   -0.000163936756045
 Root      5 :     4.636869511827583   Change is   -0.061270517873720
 Root      6 :     4.984044406559450   Change is   -0.000034436561160
 Root      7 :     5.143552886369628   Change is   -0.000063835861177
 Root      8 :     5.242573659623218   Change is   -0.000045470973100
 Root      9 :     6.046968887052316   Change is   -0.000249131576793
 Root     10 :     6.132094226136521   Change is   -0.001156947838204
 Iteration     7 Dimension   144 NMult   136 NNew      8
 CISAX will form     8 AO SS matrices at one time.
 NMat=     8 NSing=     4 JSym2X= 0.
 Root      1 has converged.
 Root      2 has converged.
 Root      3 has converged.
 Root      4 not converged, maximum delta is    0.002829874793351
 Root      5 not converged, maximum delta is    0.005051235753644
 Root      6 has converged.
 Root      7 has converged.
 Root      8 has converged.
 Root      9 has converged.
 Root     10 not converged, maximum delta is    0.002037316754329
 Excitation Energies [eV] at current iteration:
 Root      1 :     3.366834372007482   Change is   -0.000000077501516
 Root      2 :     3.896853318384615   Change is   -0.000000173767749
 Root      3 :     4.146974409973588   Change is   -0.000000163436907
 Root      4 :     4.592236603316826   Change is   -0.000023861025005
 Root      5 :     4.632790259925966   Change is   -0.004079251901617
 Root      6 :     4.984044319748104   Change is   -0.000000086811346
 Root      7 :     5.143552135216755   Change is   -0.000000751152874
 Root      8 :     5.242573261350818   Change is   -0.000000398272401
 Root      9 :     6.046939416824942   Change is   -0.000029470227374
 Root     10 :     6.131865465452134   Change is   -0.000228760684386
 Iteration     8 Dimension   150 NMult   144 NNew      6
 CISAX will form     6 AO SS matrices at one time.
 NMat=     6 NSing=     2 JSym2X= 0.
 Root      1 has converged.
 Root      2 has converged.
 Root      3 has converged.
 Root      4 has converged.
 Root      5 not converged, maximum delta is    0.001053200247644
 Root      6 has converged.
 Root      7 has converged.
 Root      8 has converged.
 Root      9 has converged.
 Root     10 has converged.
 Excitation Energies [eV] at current iteration:
 Root      1 :     3.366834322147921   Change is   -0.000000049859562
 Root      2 :     3.896853277239970   Change is   -0.000000041144646
 Root      3 :     4.146974384926924   Change is   -0.000000025046664
 Root      4 :     4.592234131353428   Change is   -0.000002471963399
 Root      5 :     4.632454769508374   Change is   -0.000335490417592
 Root      6 :     4.984044317793203   Change is   -0.000000001954901
 Root      7 :     5.143552038471699   Change is   -0.000000096745055
 Root      8 :     5.242573230747848   Change is   -0.000000030602971
 Root      9 :     6.046938767010782   Change is   -0.000000649814160
 Root     10 :     6.131826690980597   Change is   -0.000038774471537
 Iteration     9 Dimension   152 NMult   150 NNew      2
 CISAX will form     2 AO SS matrices at one time.
 NMat=     2 NSing=     0 JSym2X= 0.
 Root      1 has converged.
 Root      2 has converged.
 Root      3 has converged.
 Root      4 has converged.
 Root      5 has converged.
 Root      6 has converged.
 Root      7 has converged.
 Root      8 has converged.
 Root      9 has converged.
 Root     10 has converged.
 Excitation Energies [eV] at current iteration:
 Root      1 :     3.366834293234066   Change is   -0.000000028913855
 Root      2 :     3.896853267190277   Change is   -0.000000010049693
 Root      3 :     4.146974378863275   Change is   -0.000000006063649
 Root      4 :     4.592233954145591   Change is   -0.000000177207837
 Root      5 :     4.632429332429652   Change is   -0.000025437078723
 Root      6 :     4.984044317793103   Change is   -0.000000000000100
 Root      7 :     5.143552038471715   Change is    0.000000000000016
 Root      8 :     5.242573230747833   Change is   -0.000000000000015
 Root      9 :     6.046938767010836   Change is    0.000000000000054
 Root     10 :     6.131826690980651   Change is    0.000000000000054
 Convergence achieved on expansion vectors.
 ***********************************************************************
 Excited states from <AA,BB:AA,BB> singles matrix:
 ***********************************************************************
 
 1PDM for each excited state written to RWF  633
 Ground to excited state transition densities written to RWF  633
 Ground to excited state transition electric dipole moments (Au):
       state          X           Y           Z        Dip. S.      Osc.
         1         0.0000      0.0000      0.0000      0.0000      0.0000
         2         0.0000      0.0000      0.0000      0.0000      0.0000
         3         0.0000      0.0000      0.0000      0.0000      0.0000
         4         0.0000      0.0000      0.0000      0.0000      0.0000
         5         0.0000      0.0000      0.0000      0.0000      0.0000
         6         0.3357      0.1286     -0.3102      0.2255      0.0275
         7         2.0690     -0.2278      0.4806      4.5634      0.5751
         8        -0.0796      0.0423      0.0856      0.0155      0.0020
         9         0.0170     -0.1712     -0.1054      0.0407      0.0060
        10        -0.0298      0.0119      0.2632      0.0703      0.0106
 Ground to excited state transition velocity dipole moments (Au):
       state          X           Y           Z        Dip. S.      Osc.
         1         0.0000      0.0000      0.0000      0.0000      0.0000
         2         0.0000      0.0000      0.0000      0.0000      0.0000
         3         0.0000      0.0000      0.0000      0.0000      0.0000
         4         0.0000      0.0000      0.0000      0.0000      0.0000
         5         0.0000      0.0000      0.0000      0.0000      0.0000
         6        -0.0619     -0.0254      0.0589      0.0079      0.0289
         7        -0.3876      0.0424     -0.0900      0.1601      0.5648
         8         0.0151     -0.0090     -0.0158      0.0006      0.0019
         9        -0.0041      0.0402      0.0244      0.0022      0.0067
        10         0.0070     -0.0033     -0.0607      0.0037      0.0111
 Ground to excited state transition magnetic dipole moments (Au):
       state          X           Y           Z
         1         0.0000      0.0000      0.0000
         2         0.0000      0.0000      0.0000
         3         0.0000      0.0000      0.0000
         4         0.0000      0.0000      0.0000
         5         0.0000      0.0000      0.0000
         6         0.0043      0.2508      0.0366
         7        -0.0429      0.2905     -0.1546
         8         0.0666      0.3352     -0.0803
         9         0.0122     -0.3247     -0.3449
        10        -0.0650     -0.2394      0.0761
 Ground to excited state transition velocity quadrupole moments (Au):
       state          XX          YY          ZZ          XY          XZ          YZ
         1         0.0000      0.0000      0.0000      0.0000      0.0000      0.0000
         2         0.0000      0.0000      0.0000      0.0000      0.0000      0.0000
         3         0.0000      0.0000      0.0000      0.0000      0.0000      0.0000
         4         0.0000      0.0000      0.0000      0.0000      0.0000      0.0000
         5         0.0000      0.0000      0.0000      0.0000      0.0000      0.0000
         6         0.5066      0.0059     -0.2686      0.1148     -0.3789      0.0639
         7         1.7803      0.0028      0.0378     -0.1503      0.0561     -0.0334
         8         0.0035      0.0117     -0.0690     -0.0428     -0.0948      0.0015
         9        -0.3895     -0.0181      0.0976     -0.2328      0.0934     -0.0868
        10        -0.7206      0.0012      0.1813      0.1165      0.0335     -0.0152
 <0|del|b> * <b|rxdel|0> + <0|del|b> * <b|delr+rdel|0>
 Rotatory Strengths (R) in cgs (10**-40 erg-esu-cm/Gauss)
       state          XX          YY          ZZ    R(velocity)    E-M Angle
         1         0.0000      0.0000      0.0000      0.0000       90.00
         2         0.0000      0.0000      0.0000      0.0000       90.00
         3         0.0000      0.0000      0.0000      0.0000       90.00
         4         0.0000      0.0000      0.0000      0.0000       90.00
         5         0.0000      0.0000      0.0000      0.0000       90.00
         6       -13.6207    -17.0316     13.3897     -5.7542      101.41
         7        69.9387     56.0634     34.4162     53.4728       71.17
         8        -3.5480      2.9677     -2.1758     -0.9187       95.20
         9       -49.1277     -3.8636    -15.4227    -22.8047      164.18
        10       -16.9450      2.9751      0.5077     -4.4874      105.68
 1/2[<0|r|b>*<b|rxdel|0> + (<0|rxdel|b>*<b|r|0>)*]
 Rotatory Strengths (R) in cgs (10**-40 erg-esu-cm/Gauss)
       state          XX          YY          ZZ     R(length)
         1         0.0000      0.0000      0.0000      0.0000
         2         0.0000      0.0000      0.0000      0.0000
         3         0.0000      0.0000      0.0000      0.0000
         4         0.0000      0.0000      0.0000      0.0000
         5         0.0000      0.0000      0.0000      0.0000
         6        -1.0239    -22.8038      8.0367     -5.2637
         7        62.7939     46.8057     52.5395     54.0464
         8         3.7496    -10.0235      4.8621     -0.4706
         9        -0.1467    -39.3106    -25.6986    -21.7186
        10        -1.3679      2.0087    -14.1592     -4.5061
  1/2[<0|del|b>*<b|r|0> + (<0|r|b>*<b|del|0>)*] (Au)
       state          X           Y           Z        Dip. S.   Osc.(frdel)
         1         0.0000      0.0000      0.0000      0.0000      0.0000
         2         0.0000      0.0000      0.0000      0.0000      0.0000
         3         0.0000      0.0000      0.0000      0.0000      0.0000
         4         0.0000      0.0000      0.0000      0.0000      0.0000
         5         0.0000      0.0000      0.0000      0.0000      0.0000
         6        -0.0208     -0.0033     -0.0183      0.0423      0.0282
         7        -0.8019     -0.0097     -0.0432      0.8548      0.5699
         8        -0.0012     -0.0004     -0.0014      0.0029      0.0020
         9        -0.0001     -0.0069     -0.0026      0.0095      0.0063
        10        -0.0002      0.0000     -0.0160      0.0162      0.0108

 Excitation energies and oscillator strengths:
 
 Excited state symmetry could not be determined.
 Excited State   1:      Triplet-?Sym    3.3668 eV  368.25 nm  f=0.0000  <S**2>=2.000
      58 -> 62         0.12774
      58 -> 71         0.11025
      58 -> 72        -0.10920
      59 -> 63         0.22686
      60 -> 64        -0.19647
      61 -> 62         0.55797
 This state for optimization and/or second-order correction.
 Total Energy, E(TD-HF/TD-KS) =  -695.563015929    
 Copying the excited state density for this state as the 1-particle RhoCI density.
 
 Excited state symmetry could not be determined.
 Excited State   2:      Triplet-?Sym    3.8969 eV  318.16 nm  f=0.0000  <S**2>=2.000
      58 -> 62        -0.31234
      59 -> 62         0.12835
      59 -> 63         0.27456
      60 -> 64         0.34552
      60 -> 65         0.14555
      61 -> 63         0.11418
      61 -> 71        -0.19111
      61 -> 72         0.18473
      61 -> 74        -0.11137
 
 Excited state symmetry could not be determined.
 Excited State   3:      Triplet-?Sym    4.1470 eV  298.98 nm  f=0.0000  <S**2>=2.000
      58 -> 63        -0.17668
      61 -> 63         0.65399
 
 Excited state symmetry could not be determined.
 Excited State   4:      Triplet-?Sym    4.5922 eV  269.99 nm  f=0.0000  <S**2>=2.000
      58 -> 63         0.14736
      59 -> 63         0.49637
      60 -> 64        -0.29401
      60 -> 65        -0.12305
      61 -> 62        -0.30893
 
 Excited state symmetry could not be determined.
 Excited State   5:      Triplet-?Sym    4.6324 eV  267.64 nm  f=0.0000  <S**2>=2.000
      58 -> 64         0.34894
      58 -> 65         0.14635
      59 -> 64        -0.11537
      60 -> 62        -0.25905
      61 -> 64         0.45236
      61 -> 65         0.18549
 
 Excited state symmetry could not be determined.
 Excited State   6:      Singlet-?Sym    4.9840 eV  248.76 nm  f=0.0275  <S**2>=0.000
      58 -> 63        -0.10954
      59 -> 62        -0.23058
      61 -> 63         0.61650
 
 Excited state symmetry could not be determined.
 Excited State   7:      Singlet-?Sym    5.1436 eV  241.05 nm  f=0.5751  <S**2>=0.000
      59 -> 63         0.10236
      61 -> 62         0.66667
 
 Excited state symmetry could not be determined.
 Excited State   8:      Singlet-?Sym    5.2426 eV  236.49 nm  f=0.0020  <S**2>=0.000
      58 -> 64         0.26001
      58 -> 65         0.10857
      60 -> 62         0.38277
      61 -> 64         0.44620
      61 -> 65         0.16769
 
 Excited state symmetry could not be determined.
 Excited State   9:      Singlet-?Sym    6.0469 eV  205.04 nm  f=0.0060  <S**2>=0.000
      60 -> 62         0.11651
      61 -> 64        -0.32417
      61 -> 65         0.47015
      61 -> 66         0.11939
      61 -> 68        -0.15966
      61 -> 69        -0.18057
      61 -> 77         0.10534
 
 Excited state symmetry could not be determined.
 Excited State  10:      Singlet-?Sym    6.1318 eV  202.20 nm  f=0.0106  <S**2>=0.000
      58 -> 62         0.30759
      59 -> 62        -0.16706
      59 -> 63        -0.24210
      60 -> 64        -0.28648
      60 -> 65        -0.12059
      61 -> 67         0.19012
      61 -> 70        -0.12161
      61 -> 71         0.25278
      61 -> 72        -0.20471
 SavETr:  write IOETrn=   770 NScale= 10 NData=  16 NLR=1 NState=   10 LETran=     190.
 Leave Link  914 at Mon Oct  2 17:23:43 2017, MaxMem=  1879048192 cpu:      7492.9
 (Enter /share/apps/gaussian/g09_D01/g09/l601.exe)
 Copying SCF densities to generalized density rwf, IOpCl= 0 IROHF=0.

 **********************************************************************

            Population analysis using the SCF density.

 **********************************************************************

 Alpha  occ. eigenvalues --  -19.27779 -10.35015 -10.34021 -10.29826 -10.29217
 Alpha  occ. eigenvalues --  -10.29130 -10.28971 -10.28825 -10.28819 -10.28818
 Alpha  occ. eigenvalues --  -10.28802 -10.28665 -10.28650 -10.28634 -10.28448
 Alpha  occ. eigenvalues --  -10.28298 -10.27549  -1.17510  -0.97505  -0.95333
 Alpha  occ. eigenvalues --   -0.91156  -0.88000  -0.85629  -0.84743  -0.84020
 Alpha  occ. eigenvalues --   -0.81082  -0.75378  -0.72056  -0.70611  -0.69228
 Alpha  occ. eigenvalues --   -0.68913  -0.66975  -0.63361  -0.61222  -0.58914
 Alpha  occ. eigenvalues --   -0.56798  -0.56405  -0.55111  -0.53844  -0.53415
 Alpha  occ. eigenvalues --   -0.53034  -0.51522  -0.50958  -0.50508  -0.49846
 Alpha  occ. eigenvalues --   -0.48344  -0.47195  -0.46858  -0.46240  -0.44477
 Alpha  occ. eigenvalues --   -0.43967  -0.43074  -0.42585  -0.42312  -0.41731
 Alpha  occ. eigenvalues --   -0.40425  -0.40183  -0.33949  -0.33377  -0.33113
 Alpha  occ. eigenvalues --   -0.28425
 Alpha virt. eigenvalues --    0.03779   0.05396   0.05568   0.05705   0.06550
 Alpha virt. eigenvalues --    0.07093   0.07544   0.07655   0.08039   0.08901
 Alpha virt. eigenvalues --    0.09238   0.09543   0.10067   0.10295   0.10831
 Alpha virt. eigenvalues --    0.10951   0.11255   0.11891   0.12089   0.12329
 Alpha virt. eigenvalues --    0.13602   0.13649   0.13911   0.14163   0.14851
 Alpha virt. eigenvalues --    0.16041   0.16252   0.16408   0.16638   0.17316
 Alpha virt. eigenvalues --    0.17532   0.18334   0.18656   0.19063   0.19581
 Alpha virt. eigenvalues --    0.19770   0.20311   0.20430   0.21177   0.21432
 Alpha virt. eigenvalues --    0.21819   0.22276   0.22531   0.22671   0.23041
 Alpha virt. eigenvalues --    0.23200   0.23957   0.24368   0.24397   0.24732
 Alpha virt. eigenvalues --    0.24910   0.25059   0.25976   0.26150   0.26508
 Alpha virt. eigenvalues --    0.26826   0.26991   0.27224   0.27308   0.27539
 Alpha virt. eigenvalues --    0.27709   0.28071   0.28211   0.28883   0.28924
 Alpha virt. eigenvalues --    0.29855   0.30011   0.30223   0.30568   0.31053
 Alpha virt. eigenvalues --    0.31311   0.31454   0.31721   0.32245   0.32437
 Alpha virt. eigenvalues --    0.32965   0.33402   0.33940   0.34579   0.34910
 Alpha virt. eigenvalues --    0.35152   0.35387   0.35587   0.35981   0.36547
 Alpha virt. eigenvalues --    0.36744   0.37359   0.38039   0.38515   0.39492
 Alpha virt. eigenvalues --    0.39545   0.39982   0.40971   0.41231   0.42002
 Alpha virt. eigenvalues --    0.42252   0.42710   0.43988   0.45237   0.45508
 Alpha virt. eigenvalues --    0.46480   0.47934   0.49244   0.50235   0.50698
 Alpha virt. eigenvalues --    0.51742   0.53291   0.55371   0.56255   0.57597
 Alpha virt. eigenvalues --    0.59251   0.59849   0.60422   0.60751   0.61803
 Alpha virt. eigenvalues --    0.61837   0.62186   0.62975   0.63238   0.63644
 Alpha virt. eigenvalues --    0.65376   0.65539   0.66907   0.67761   0.68155
 Alpha virt. eigenvalues --    0.68509   0.69064   0.69925   0.70125   0.70880
 Alpha virt. eigenvalues --    0.71090   0.71654   0.72270   0.72643   0.73204
 Alpha virt. eigenvalues --    0.74158   0.74858   0.75167   0.76387   0.76730
 Alpha virt. eigenvalues --    0.76798   0.77420   0.77690   0.78271   0.78845
 Alpha virt. eigenvalues --    0.79289   0.79755   0.80920   0.81340   0.81854
 Alpha virt. eigenvalues --    0.82153   0.82319   0.82780   0.83458   0.83996
 Alpha virt. eigenvalues --    0.84642   0.85340   0.85718   0.87412   0.87942
 Alpha virt. eigenvalues --    0.88849   0.90088   0.90392   0.91351   0.92985
 Alpha virt. eigenvalues --    0.93557   0.94151   0.94474   0.95225   0.96622
 Alpha virt. eigenvalues --    0.98406   0.99149   0.99722   1.00551   1.01340
 Alpha virt. eigenvalues --    1.03223   1.03782   1.05764   1.07189   1.08188
 Alpha virt. eigenvalues --    1.08742   1.09651   1.10789   1.11881   1.12442
 Alpha virt. eigenvalues --    1.13766   1.15305   1.17319   1.18262   1.20941
 Alpha virt. eigenvalues --    1.21622   1.22279   1.23855   1.26965   1.29003
 Alpha virt. eigenvalues --    1.29158   1.29825   1.32280   1.33362   1.33905
 Alpha virt. eigenvalues --    1.34504   1.38888   1.39866   1.41262   1.41559
 Alpha virt. eigenvalues --    1.46009   1.47361   1.48248   1.53475   1.57862
 Alpha virt. eigenvalues --    1.58601   1.60097   1.61465   1.61955   1.62116
 Alpha virt. eigenvalues --    1.63336   1.64006   1.65148   1.65777   1.67076
 Alpha virt. eigenvalues --    1.67549   1.70343   1.71331   1.73736   1.74924
 Alpha virt. eigenvalues --    1.76546   1.78791   1.80640   1.81881   1.84578
 Alpha virt. eigenvalues --    1.86148   1.86432   1.86944   1.88632   1.88957
 Alpha virt. eigenvalues --    1.90139   1.90423   1.92063   1.92859   1.93876
 Alpha virt. eigenvalues --    1.94787   1.95783   1.97266   1.99099   2.00951
 Alpha virt. eigenvalues --    2.02318   2.02771   2.03703   2.03778   2.04683
 Alpha virt. eigenvalues --    2.06007   2.07886   2.09062   2.13621   2.15049
 Alpha virt. eigenvalues --    2.17849   2.19705   2.26606   2.27031   2.30254
 Alpha virt. eigenvalues --    2.34063   2.34939   2.36963   2.37537   2.41987
 Alpha virt. eigenvalues --    2.43370   2.45059   2.45893   2.47205   2.48457
 Alpha virt. eigenvalues --    2.52119   2.52826   2.54012   2.54315   2.58260
 Alpha virt. eigenvalues --    2.59133   2.60650   2.63279   2.63822   2.66340
 Alpha virt. eigenvalues --    2.68923   2.71965   2.74983   2.76247   2.76792
 Alpha virt. eigenvalues --    2.78775   2.79062   2.79544   2.82954   2.88989
 Alpha virt. eigenvalues --    2.89645   2.90054   2.91214   2.93463   2.98402
 Alpha virt. eigenvalues --    2.98518   3.02382   3.03601   3.04910   3.07035
 Alpha virt. eigenvalues --    3.08248   3.09933   3.10504   3.11015   3.18073
 Alpha virt. eigenvalues --    3.18647   3.20597   3.21029   3.22025   3.26500
 Alpha virt. eigenvalues --    3.29633   3.30945   3.31320   3.32250   3.33978
 Alpha virt. eigenvalues --    3.35838   3.38360   3.41257   3.41692   3.42913
 Alpha virt. eigenvalues --    3.43135   3.43798   3.44426   3.47047   3.50570
 Alpha virt. eigenvalues --    3.52748   3.53890   3.60578   3.69497   3.72383
 Alpha virt. eigenvalues --    3.73986   3.77361   3.78104   3.80459   3.91868
 Alpha virt. eigenvalues --    4.02438   4.09558   4.11638   4.13515   4.14322
 Alpha virt. eigenvalues --    4.23773   4.28816   4.55993   4.89274   4.91607
 Alpha virt. eigenvalues --    5.17667   5.49839   5.89724  23.45198  23.59222
 Alpha virt. eigenvalues --   23.62781  23.75627  23.82337  23.88158  23.98911
 Alpha virt. eigenvalues --   23.99112  24.02580  24.05869  24.14970  24.19485
 Alpha virt. eigenvalues --   24.19911  24.21125  24.28555  24.30827  50.10552
          Condensed to atoms (all electrons):
               1          2          3          4          5          6
     1  C   12.511946  -1.014195  -0.781188  -0.921489  -0.480909  -1.555126
     2  C   -1.014195  16.620912  -1.660759   0.738497  -0.839524  -6.358244
     3  C   -0.781188  -1.660759   7.986865  -0.055411   0.487143  -0.824461
     4  C   -0.921489   0.738497  -0.055411   6.206049  -0.070455   0.675098
     5  C   -0.480909  -0.839524   0.487143  -0.070455   8.102658  -1.905519
     6  C   -1.555126  -6.358244  -0.824461   0.675098  -1.905519  16.690715
     7  H   -0.022433   0.252179   0.023812  -0.011806  -0.001704  -0.013284
     8  H    0.021826   0.012672   0.279054   0.040205  -0.021469   0.005403
     9  H    0.036131  -0.054783   0.057934   0.284094   0.054982  -0.053969
    10  H    0.017893   0.000936  -0.019854   0.041274   0.279951   0.018982
    11  H    0.016043  -0.019213  -0.000250  -0.011429   0.050201   0.243065
    12  C   -3.059198  -1.392618   0.717830  -0.541933   0.523607  -1.232325
    13  C    3.381756  -0.613408  -0.164817   0.047306   0.500128   1.057589
    14  C   -0.797349   0.120440  -0.050916   0.033361  -0.013897   0.248177
    15  C    0.254090  -0.189689   0.005319  -0.015474   0.053639   0.063227
    16  C    0.665134   0.191214  -0.096222   0.059515  -0.137909   0.293822
    17  C   -3.678362   0.932205   0.380268  -0.037384  -0.275407  -0.639579
    18  H   -0.036363  -0.018468  -0.006797   0.005213  -0.004155   0.086209
    19  H    0.008304  -0.002058  -0.000338   0.000077   0.000046   0.003690
    20  O    0.002579  -0.001866  -0.000264  -0.000001   0.000284  -0.000547
    21  H    0.001728   0.006546   0.000191   0.000084  -0.000353  -0.003527
    22  H    0.018970   0.096062   0.000057   0.004942  -0.005635  -0.027979
    23  C    0.017247  -0.006935  -0.000549   0.000013   0.000047   0.003903
    24  H   -0.000071   0.000006  -0.000001   0.000000  -0.000004   0.000003
    25  H   -0.000018   0.000033   0.000045  -0.000010   0.000033  -0.000249
    26  C    0.014033  -0.003569  -0.000879  -0.000239   0.000811  -0.003099
    27  C   -0.002084   0.000779  -0.000173   0.000027  -0.000020  -0.000104
    28  H    0.001929  -0.000522  -0.000145   0.000013  -0.000016   0.000244
    29  H   -0.000089   0.000081   0.000009  -0.000001   0.000003  -0.000040
    30  C   -0.000819  -0.000338  -0.000017  -0.000012   0.000015  -0.000038
    31  H    0.000016  -0.000003  -0.000001   0.000000   0.000000   0.000000
    32  H   -0.000068   0.000024   0.000008   0.000000   0.000001  -0.000004
    33  H    0.000001   0.000000   0.000000   0.000000   0.000000   0.000000
    34  H    0.000010  -0.000019  -0.000005   0.000000   0.000000   0.000001
    35  H   -0.000002   0.000003   0.000000   0.000000   0.000000   0.000000
               7          8          9         10         11         12
     1  C   -0.022433   0.021826   0.036131   0.017893   0.016043  -3.059198
     2  C    0.252179   0.012672  -0.054783   0.000936  -0.019213  -1.392618
     3  C    0.023812   0.279054   0.057934  -0.019854  -0.000250   0.717830
     4  C   -0.011806   0.040205   0.284094   0.041274  -0.011429  -0.541933
     5  C   -0.001704  -0.021469   0.054982   0.279951   0.050201   0.523607
     6  C   -0.013284   0.005403  -0.053969   0.018982   0.243065  -1.232325
     7  H    0.436349  -0.003985  -0.000196   0.000057  -0.000209   0.015768
     8  H   -0.003985   0.438922  -0.005066  -0.000187   0.000057  -0.010232
     9  H   -0.000196  -0.005066   0.438266  -0.005067  -0.000199   0.008625
    10  H    0.000057  -0.000187  -0.005067   0.438258  -0.003983  -0.009479
    11  H   -0.000209   0.000057  -0.000199  -0.003983   0.434575  -0.011113
    12  C    0.015768  -0.010232   0.008625  -0.009479  -0.011113  17.968264
    13  C   -0.059153  -0.004955  -0.000967   0.003432   0.088069  -5.415411
    14  C   -0.000362  -0.000028  -0.000121   0.001297   0.011865  -0.409046
    15  C    0.002972  -0.000165   0.000034  -0.000328   0.001053  -2.307764
    16  C    0.004260   0.000690  -0.000226  -0.000531  -0.011770  -3.536586
    17  C    0.136583   0.007653  -0.000283  -0.003076  -0.030159   3.484913
    18  H    0.000006   0.000001   0.000001   0.000031  -0.000891   0.036538
    19  H    0.000001   0.000000   0.000000   0.000000   0.000019  -0.014321
    20  O   -0.000003   0.000000   0.000000   0.000000   0.000006  -0.034932
    21  H    0.000021   0.000000   0.000000   0.000000   0.000002   0.064231
    22  H   -0.001094   0.000025   0.000000   0.000001  -0.000010  -0.045576
    23  C   -0.000035  -0.000001   0.000000  -0.000001  -0.000052  -0.092294
    24  H    0.000000   0.000000   0.000000   0.000000   0.000000   0.001671
    25  H    0.000000   0.000000   0.000000   0.000000   0.000000  -0.000243
    26  C   -0.000007   0.000000   0.000000   0.000000   0.000005  -0.036744
    27  C   -0.000006   0.000000   0.000000   0.000000   0.000000  -0.010270
    28  H    0.000001   0.000000   0.000000   0.000000   0.000000  -0.008351
    29  H    0.000000   0.000000   0.000000   0.000000   0.000000   0.002019
    30  C    0.000005   0.000000   0.000000   0.000000   0.000000  -0.003938
    31  H    0.000000   0.000000   0.000000   0.000000   0.000000   0.000182
    32  H    0.000000   0.000000   0.000000   0.000000   0.000000   0.000224
    33  H    0.000000   0.000000   0.000000   0.000000   0.000000   0.000012
    34  H    0.000000   0.000000   0.000000   0.000000   0.000000   0.000011
    35  H    0.000000   0.000000   0.000000   0.000000   0.000000   0.000031
              13         14         15         16         17         18
     1  C    3.381756  -0.797349   0.254090   0.665134  -3.678362  -0.036363
     2  C   -0.613408   0.120440  -0.189689   0.191214   0.932205  -0.018468
     3  C   -0.164817  -0.050916   0.005319  -0.096222   0.380268  -0.006797
     4  C    0.047306   0.033361  -0.015474   0.059515  -0.037384   0.005213
     5  C    0.500128  -0.013897   0.053639  -0.137909  -0.275407  -0.004155
     6  C    1.057589   0.248177   0.063227   0.293822  -0.639579   0.086209
     7  H   -0.059153  -0.000362   0.002972   0.004260   0.136583   0.000006
     8  H   -0.004955  -0.000028  -0.000165   0.000690   0.007653   0.000001
     9  H   -0.000967  -0.000121   0.000034  -0.000226  -0.000283   0.000001
    10  H    0.003432   0.001297  -0.000328  -0.000531  -0.003076   0.000031
    11  H    0.088069   0.011865   0.001053  -0.011770  -0.030159  -0.000891
    12  C   -5.415411  -0.409046  -2.307764  -3.536586   3.484913   0.036538
    13  C   18.544874  -0.963951   0.055115  -0.402190  -9.953168   0.252869
    14  C   -0.963951  12.375855  -0.674908  -4.004016   1.108022   0.003688
    15  C    0.055115  -0.674908   9.877703   0.589906  -1.688733   0.012167
    16  C   -0.402190  -4.004016   0.589906  12.100673  -0.263867  -0.010063
    17  C   -9.953168   1.108022  -1.688733  -0.263867  17.514294   0.008351
    18  H    0.252869   0.003688   0.012167  -0.010063   0.008351   0.430729
    19  H    0.026661   0.295563   0.055393   0.012822  -0.048083  -0.003908
    20  O    0.017972  -0.448265   0.468809   0.020075  -0.022950  -0.001136
    21  H    0.003838  -0.055217  -0.080123   0.430150  -0.042155   0.000062
    22  H    0.042679  -0.041495   0.015652   0.045374   0.226490  -0.000267
    23  C   -0.005133  -0.125239   0.053683  -0.043581  -0.124049   0.000412
    24  H   -0.004111   0.019019   0.047424  -0.026433   0.003768  -0.000001
    25  H   -0.004489  -0.064126  -0.191108   0.183910   0.050288   0.000000
    26  C    0.130794   0.031138  -0.184590   0.125716  -0.122840  -0.000489
    27  C    0.000495   0.077445   0.023510  -0.106474  -0.008369  -0.000008
    28  H    0.006861   0.003322   0.019641  -0.003374  -0.027740  -0.000002
    29  H   -0.002262  -0.028817  -0.043411   0.053534   0.012857   0.000000
    30  C    0.000942   0.031110   0.018873  -0.045997  -0.009513  -0.000002
    31  H   -0.000033  -0.000752  -0.002865   0.002533   0.000261   0.000000
    32  H   -0.000295  -0.001861  -0.007397   0.005153   0.007521   0.000000
    33  H   -0.000006  -0.000212  -0.000275   0.000603   0.000017   0.000000
    34  H    0.000020  -0.000338  -0.004207   0.001047  -0.000478   0.000000
    35  H   -0.000016  -0.000138   0.001041   0.000917   0.000524   0.000000
              19         20         21         22         23         24
     1  C    0.008304   0.002579   0.001728   0.018970   0.017247  -0.000071
     2  C   -0.002058  -0.001866   0.006546   0.096062  -0.006935   0.000006
     3  C   -0.000338  -0.000264   0.000191   0.000057  -0.000549  -0.000001
     4  C    0.000077  -0.000001   0.000084   0.004942   0.000013   0.000000
     5  C    0.000046   0.000284  -0.000353  -0.005635   0.000047  -0.000004
     6  C    0.003690  -0.000547  -0.003527  -0.027979   0.003903   0.000003
     7  H    0.000001  -0.000003   0.000021  -0.001094  -0.000035   0.000000
     8  H    0.000000   0.000000   0.000000   0.000025  -0.000001   0.000000
     9  H    0.000000   0.000000   0.000000   0.000000   0.000000   0.000000
    10  H    0.000000   0.000000   0.000000   0.000001  -0.000001   0.000000
    11  H    0.000019   0.000006   0.000002  -0.000010  -0.000052   0.000000
    12  C   -0.014321  -0.034932   0.064231  -0.045576  -0.092294   0.001671
    13  C    0.026661   0.017972   0.003838   0.042679  -0.005133  -0.004111
    14  C    0.295563  -0.448265  -0.055217  -0.041495  -0.125239   0.019019
    15  C    0.055393   0.468809  -0.080123   0.015652   0.053683   0.047424
    16  C    0.012822   0.020075   0.430150   0.045374  -0.043581  -0.026433
    17  C   -0.048083  -0.022950  -0.042155   0.226490  -0.124049   0.003768
    18  H   -0.003908  -0.001136   0.000062  -0.000267   0.000412  -0.000001
    19  H    0.422355  -0.002664  -0.000091   0.000053  -0.004517  -0.000068
    20  O   -0.002664   8.033481  -0.006242  -0.000321   0.197511  -0.100185
    21  H   -0.000091  -0.006242   0.434320  -0.003159  -0.003851   0.000135
    22  H    0.000053  -0.000321  -0.003159   0.431780  -0.000576  -0.000001
    23  C   -0.004517   0.197511  -0.003851  -0.000576   6.883630   0.430198
    24  H   -0.000068  -0.100185   0.000135  -0.000001   0.430198   0.440241
    25  H    0.000091  -0.002967  -0.002577   0.000098   0.300645  -0.033790
    26  C    0.002510  -0.123450   0.015037   0.001992  -0.908237  -0.036006
    27  C   -0.000136  -0.009830  -0.011748  -0.000265   0.391833  -0.013357
    28  H   -0.000012  -0.011798  -0.003697  -0.000014  -0.003299   0.003611
    29  H    0.000000   0.007434   0.000226   0.000000  -0.064292  -0.005868
    30  C   -0.000016  -0.001137  -0.000696   0.000064  -0.273488   0.001193
    31  H    0.000000  -0.001519  -0.000041   0.000000   0.004996   0.002356
    32  H    0.000000  -0.000275   0.000391   0.000000  -0.011715   0.000065
    33  H    0.000000   0.000058  -0.000003   0.000000   0.006930  -0.000013
    34  H    0.000000  -0.000018  -0.000052   0.000000   0.003256  -0.000025
    35  H    0.000000  -0.000050   0.000011   0.000000   0.001939   0.000074
              25         26         27         28         29         30
     1  C   -0.000018   0.014033  -0.002084   0.001929  -0.000089  -0.000819
     2  C    0.000033  -0.003569   0.000779  -0.000522   0.000081  -0.000338
     3  C    0.000045  -0.000879  -0.000173  -0.000145   0.000009  -0.000017
     4  C   -0.000010  -0.000239   0.000027   0.000013  -0.000001  -0.000012
     5  C    0.000033   0.000811  -0.000020  -0.000016   0.000003   0.000015
     6  C   -0.000249  -0.003099  -0.000104   0.000244  -0.000040  -0.000038
     7  H    0.000000  -0.000007  -0.000006   0.000001   0.000000   0.000005
     8  H    0.000000   0.000000   0.000000   0.000000   0.000000   0.000000
     9  H    0.000000   0.000000   0.000000   0.000000   0.000000   0.000000
    10  H    0.000000   0.000000   0.000000   0.000000   0.000000   0.000000
    11  H    0.000000   0.000005   0.000000   0.000000   0.000000   0.000000
    12  C   -0.000243  -0.036744  -0.010270  -0.008351   0.002019  -0.003938
    13  C   -0.004489   0.130794   0.000495   0.006861  -0.002262   0.000942
    14  C   -0.064126   0.031138   0.077445   0.003322  -0.028817   0.031110
    15  C   -0.191108  -0.184590   0.023510   0.019641  -0.043411   0.018873
    16  C    0.183910   0.125716  -0.106474  -0.003374   0.053534  -0.045997
    17  C    0.050288  -0.122840  -0.008369  -0.027740   0.012857  -0.009513
    18  H    0.000000  -0.000489  -0.000008  -0.000002   0.000000  -0.000002
    19  H    0.000091   0.002510  -0.000136  -0.000012   0.000000  -0.000016
    20  O   -0.002967  -0.123450  -0.009830  -0.011798   0.007434  -0.001137
    21  H   -0.002577   0.015037  -0.011748  -0.003697   0.000226  -0.000696
    22  H    0.000098   0.001992  -0.000265  -0.000014   0.000000   0.000064
    23  C    0.300645  -0.908237   0.391833  -0.003299  -0.064292  -0.273488
    24  H   -0.033790  -0.036006  -0.013357   0.003611  -0.005868   0.001193
    25  H    0.481160   0.065117  -0.049600  -0.008168   0.004454   0.009164
    26  C    0.065117   7.127323  -0.844526   0.422002   0.460337   0.260873
    27  C   -0.049600  -0.844526   6.451455  -0.046576  -0.058952  -0.249362
    28  H   -0.008168   0.422002  -0.046576   0.427640  -0.036697  -0.015239
    29  H    0.004454   0.460337  -0.058952  -0.036697   0.435480   0.002718
    30  C    0.009164   0.260873  -0.249362  -0.015239   0.002718   6.249648
    31  H   -0.000596  -0.071552   0.461589   0.005186  -0.006817  -0.061219
    32  H    0.003199  -0.034371   0.404389  -0.008533   0.005688  -0.036071
    33  H   -0.000018   0.060062  -0.084142  -0.000249  -0.000128   0.366045
    34  H    0.000029  -0.050823   0.017802   0.002725  -0.000645   0.380911
    35  H   -0.000011  -0.030513  -0.009527   0.000032   0.003957   0.378257
              31         32         33         34         35
     1  C    0.000016  -0.000068   0.000001   0.000010  -0.000002
     2  C   -0.000003   0.000024   0.000000  -0.000019   0.000003
     3  C   -0.000001   0.000008   0.000000  -0.000005   0.000000
     4  C    0.000000   0.000000   0.000000   0.000000   0.000000
     5  C    0.000000   0.000001   0.000000   0.000000   0.000000
     6  C    0.000000  -0.000004   0.000000   0.000001   0.000000
     7  H    0.000000   0.000000   0.000000   0.000000   0.000000
     8  H    0.000000   0.000000   0.000000   0.000000   0.000000
     9  H    0.000000   0.000000   0.000000   0.000000   0.000000
    10  H    0.000000   0.000000   0.000000   0.000000   0.000000
    11  H    0.000000   0.000000   0.000000   0.000000   0.000000
    12  C    0.000182   0.000224   0.000012   0.000011   0.000031
    13  C   -0.000033  -0.000295  -0.000006   0.000020  -0.000016
    14  C   -0.000752  -0.001861  -0.000212  -0.000338  -0.000138
    15  C   -0.002865  -0.007397  -0.000275  -0.004207   0.001041
    16  C    0.002533   0.005153   0.000603   0.001047   0.000917
    17  C    0.000261   0.007521   0.000017  -0.000478   0.000524
    18  H    0.000000   0.000000   0.000000   0.000000   0.000000
    19  H    0.000000   0.000000   0.000000   0.000000   0.000000
    20  O   -0.001519  -0.000275   0.000058  -0.000018  -0.000050
    21  H   -0.000041   0.000391  -0.000003  -0.000052   0.000011
    22  H    0.000000   0.000000   0.000000   0.000000   0.000000
    23  C    0.004996  -0.011715   0.006930   0.003256   0.001939
    24  H    0.002356   0.000065  -0.000013  -0.000025   0.000074
    25  H   -0.000596   0.003199  -0.000018   0.000029  -0.000011
    26  C   -0.071552  -0.034371   0.060062  -0.050823  -0.030513
    27  C    0.461589   0.404389  -0.084142   0.017802  -0.009527
    28  H    0.005186  -0.008533  -0.000249   0.002725   0.000032
    29  H   -0.006817   0.005688  -0.000128  -0.000645   0.003957
    30  C   -0.061219  -0.036071   0.366045   0.380911   0.378257
    31  H    0.466477  -0.043286  -0.003391   0.005438  -0.007016
    32  H   -0.043286   0.475372  -0.003333  -0.008262   0.006070
    33  H   -0.003391  -0.003333   0.442798  -0.024032  -0.023493
    34  H    0.005438  -0.008262  -0.024032   0.453065  -0.033846
    35  H   -0.007016   0.006070  -0.023493  -0.033846   0.451817
 Mulliken charges:
               1
     1  C    1.380128
     2  C   -0.796379
     3  C   -0.275490
     4  C   -0.470123
     5  C   -0.296574
     6  C   -0.772034
     7  H    0.242265
     8  H    0.239580
     9  H    0.240812
    10  H    0.240391
    11  H    0.244316
    12  C    1.348450
    13  C   -0.567033
    14  C   -0.679248
    15  C   -0.228212
    16  C   -0.097810
    17  C   -0.897820
    18  H    0.246273
    19  H    0.248626
    20  O    0.022210
    21  H    0.256558
    22  H    0.242151
    23  C   -0.628398
    24  H    0.270169
    25  H    0.259704
    26  C   -0.265817
    27  C   -0.323795
    28  H    0.281226
    29  H    0.259220
    30  C   -1.001913
    31  H    0.250057
    32  H    0.247367
    33  H    0.262768
    34  H    0.258436
    35  H    0.259939
 Sum of Mulliken charges =   0.00000
 Mulliken charges with hydrogens summed into heavy atoms:
               1
     1  C    1.380128
     2  C   -0.554114
     3  C   -0.035910
     4  C   -0.229311
     5  C   -0.056183
     6  C   -0.527718
    12  C    1.348450
    13  C   -0.320759
    14  C   -0.430622
    15  C   -0.228212
    16  C    0.158748
    17  C   -0.655668
    20  O    0.022210
    23  C   -0.098525
    26  C    0.274629
    27  C    0.173629
    30  C   -0.220771
 Electronic spatial extent (au):  <R**2>=           9572.6633
 Charge=              0.0000 electrons
 Dipole moment (field-independent basis, Debye):
    X=             -1.3669    Y=              0.0189    Z=              1.0864  Tot=              1.7461
 Quadrupole moment (field-independent basis, Debye-Ang):
   XX=            -81.3923   YY=           -106.7118   ZZ=            -98.1825
   XY=             -2.0277   XZ=             -5.2735   YZ=              1.0819
 Traceless Quadrupole moment (field-independent basis, Debye-Ang):
   XX=             14.0366   YY=            -11.2829   ZZ=             -2.7536
   XY=             -2.0277   XZ=             -5.2735   YZ=              1.0819
 Octapole moment (field-independent basis, Debye-Ang**2):
  XXX=            598.0664  YYY=           -101.7463  ZZZ=             -8.9956  XYY=            242.0329
  XXY=            -33.0410  XXZ=             22.1763  XZZ=            253.0634  YZZ=            -29.1141
  YYZ=             -7.5286  XYZ=              7.2859
 Hexadecapole moment (field-independent basis, Debye-Ang**3):
 XXXX=         -10253.5541 YYYY=           -665.7032 ZZZZ=          -1036.4008 XXXY=            841.4095
 XXXZ=            -72.2401 YYYX=            959.4532 YYYZ=            -91.3524 ZZZX=            -30.0942
 ZZZY=            -88.6863 XXYY=          -2031.3047 XXZZ=          -2103.0648 YYZZ=           -292.1104
 XXYZ=            -32.4211 YYXZ=            -10.2245 ZZXY=            324.0244
 N-N= 1.079263272040D+03 E-N=-3.774808126277D+03  KE= 6.928004679631D+02
 Leave Link  601 at Mon Oct  2 17:23:44 2017, MaxMem=  1879048192 cpu:         0.1
 (Enter /share/apps/gaussian/g09_D01/g09/l9999.exe)
 1\1\GINC-NXV42\SP\RwB97XD TD-FC\6-311+G(d)\C16H18O1\BTX008\02-Oct-2017
 \0\\#p wb97xd 6-311+G(d) nosymm td=(nstates=5,50-50)\\m1 tddft singlet
 s and triplets\\0,1\C,0,0.342004,-0.131469,0.179169\C,0,0.739704,0.303
 436,1.446236\C,0,2.056143,0.162706,1.867535\C,0,3.002234,-0.412011,1.0
 26643\C,0,2.620212,-0.846902,-0.237352\C,0,1.302609,-0.709452,-0.65523
 9\H,0,0.014573,0.778236,2.100177\H,0,2.345081,0.513722,2.853109\H,0,4.
 031153,-0.519928,1.354102\H,0,3.348945,-1.303963,-0.899274\H,0,1.00969
 ,-1.075707,-1.634413\C,0,-1.063162,0.015526,-0.271506\C,0,-1.364853,0.
 452688,-1.566429\C,0,-2.67264,0.587428,-1.993368\C,0,-3.731293,0.2859,
 -1.134133\C,0,-3.451545,-0.145668,0.161175\C,0,-2.129202,-0.277158,0.5
 74573\H,0,-0.558804,0.713414,-2.245368\H,0,-2.90124,0.932723,-2.995567
 \O,0,-4.973735,0.428884,-1.66057\H,0,-4.243127,-0.392313,0.857916\H,0,
 -1.931075,-0.63786,1.579407\C,0,-6.111471,0.23393,-0.836539\H,0,-6.936
 106,0.096021,-1.539043\H,0,-6.015472,-0.69916,-0.267614\C,0,-6.392,1.4
 19306,0.075981\C,0,-7.602907,1.17356,0.973339\H,0,-5.512664,1.636447,0
 .691932\H,0,-6.558,2.30462,-0.547656\C,0,-7.94656,2.381937,1.838334\H,
 0,-8.469626,0.90793,0.355667\H,0,-7.410924,0.305684,1.616171\H,0,-8.81
 0767,2.18297,2.477437\H,0,-7.108891,2.655855,2.486825\H,0,-8.183942,3.
 253545,1.220956\\Version=ES64L-G09RevD.01\HF=-695.6867448\RMSD=7.080e-
 09\PG=C01 [X(C16H18O1)]\\@


 LET US LEARN TO DREAM, GENTLEMEN, THEN PERHAPS WE SHALL
 DISCOVER THE TRUTH;  BUT LET US BEWARE OF PUBLISHING
 OUR DREAMS ABROAD BEFORE THEY HAVE BEEN SCRUTINIZED
 BY OUR VIGILANT INTELLECT ... LET US ALWAYS ALLOW
 THE FRUIT TO HANG UNTIL IT IS RIPE.  UNRIPE FRUIT
 BRINGS EVEN THE GROWER BUT LITTLE PROFIT; IT DAMAGES
 THE HEALTH OF THOSE WHO CONSUME IT; IT ENDANGERS
 PARTICULARLY THE YOUTH WHO CANNOT YET DISTINGUISH
 BETWEEN RIPE AND UNRIPE FRUIT.

                                  -- KEKULE, 1890
 Job cpu time:       0 days  2 hours 24 minutes 45.3 seconds.
 File lengths (MBytes):  RWF=    484 Int=      0 D2E=      0 Chk=     65 Scr=      1
 Normal termination of Gaussian 09 at Mon Oct  2 17:23:44 2017.
