 Entering Gaussian System, Link 0=g09
 Input=s1-opt-SP.com
 Output=s1-opt-SP.out
 Initial command:
 /share/apps/gaussian/g09_D01/g09/l1.exe "/tmp/141002.1.all.q/Gau-17457.inp" -scrdir="/tmp/141002.1.all.q/"
 Entering Link 1 = /share/apps/gaussian/g09_D01/g09/l1.exe PID=     17458.
  
 Copyright (c) 1988,1990,1992,1993,1995,1998,2003,2009,2013,
            Gaussian, Inc.  All Rights Reserved.
  
 This is part of the Gaussian(R) 09 program.  It is based on
 the Gaussian(R) 03 system (copyright 2003, Gaussian, Inc.),
 the Gaussian(R) 98 system (copyright 1998, Gaussian, Inc.),
 the Gaussian(R) 94 system (copyright 1995, Gaussian, Inc.),
 the Gaussian 92(TM) system (copyright 1992, Gaussian, Inc.),
 the Gaussian 90(TM) system (copyright 1990, Gaussian, Inc.),
 the Gaussian 88(TM) system (copyright 1988, Gaussian, Inc.),
 the Gaussian 86(TM) system (copyright 1986, Carnegie Mellon
 University), and the Gaussian 82(TM) system (copyright 1983,
 Carnegie Mellon University). Gaussian is a federally registered
 trademark of Gaussian, Inc.
  
 This software contains proprietary and confidential information,
 including trade secrets, belonging to Gaussian, Inc.
  
 This software is provided under written license and may be
 used, copied, transmitted, or stored only in accord with that
 written license.
  
 The following legend is applicable only to US Government
 contracts under FAR:
  
                    RESTRICTED RIGHTS LEGEND
  
 Use, reproduction and disclosure by the US Government is
 subject to restrictions as set forth in subparagraphs (a)
 and (c) of the Commercial Computer Software - Restricted
 Rights clause in FAR 52.227-19.
  
 Gaussian, Inc.
 340 Quinnipiac St., Bldg. 40, Wallingford CT 06492
  
  
 ---------------------------------------------------------------
 Warning -- This program may not be used in any manner that
 competes with the business of Gaussian, Inc. or will provide
 assistance to any competitor of Gaussian, Inc.  The licensee
 of this program is prohibited from giving any competitor of
 Gaussian, Inc. access to this program.  By using this program,
 the user acknowledges that Gaussian, Inc. is engaged in the
 business of creating and licensing software in the field of
 computational chemistry and represents and warrants to the
 licensee that it is not a competitor of Gaussian, Inc. and that
 it will not use this program in any manner prohibited above.
 ---------------------------------------------------------------
  

 Cite this work as:
 Gaussian 09, Revision D.01,
 M. J. Frisch, G. W. Trucks, H. B. Schlegel, G. E. Scuseria, 
 M. A. Robb, J. R. Cheeseman, G. Scalmani, V. Barone, B. Mennucci, 
 G. A. Petersson, H. Nakatsuji, M. Caricato, X. Li, H. P. Hratchian, 
 A. F. Izmaylov, J. Bloino, G. Zheng, J. L. Sonnenberg, M. Hada, 
 M. Ehara, K. Toyota, R. Fukuda, J. Hasegawa, M. Ishida, T. Nakajima, 
 Y. Honda, O. Kitao, H. Nakai, T. Vreven, J. A. Montgomery, Jr., 
 J. E. Peralta, F. Ogliaro, M. Bearpark, J. J. Heyd, E. Brothers, 
 K. N. Kudin, V. N. Staroverov, T. Keith, R. Kobayashi, J. Normand, 
 K. Raghavachari, A. Rendell, J. C. Burant, S. S. Iyengar, J. Tomasi, 
 M. Cossi, N. Rega, J. M. Millam, M. Klene, J. E. Knox, J. B. Cross, 
 V. Bakken, C. Adamo, J. Jaramillo, R. Gomperts, R. E. Stratmann, 
 O. Yazyev, A. J. Austin, R. Cammi, C. Pomelli, J. W. Ochterski, 
 R. L. Martin, K. Morokuma, V. G. Zakrzewski, G. A. Voth, 
 P. Salvador, J. J. Dannenberg, S. Dapprich, A. D. Daniels, 
 O. Farkas, J. B. Foresman, J. V. Ortiz, J. Cioslowski, 
 and D. J. Fox, Gaussian, Inc., Wallingford CT, 2013.
 
 ******************************************
 Gaussian 09:  ES64L-G09RevD.01 24-Apr-2013
                 2-Oct-2017 
 ******************************************
 %chk=m1-s1-opt-SP
 %mem=14GB
 %nproc=2
 Will use up to    2 processors via shared memory.
 ------------------------------------------------
 #p wb97xd 6-311+G(d) nosymm td=(nstates=5,50-50)
 ------------------------------------------------
 1/38=1/1;
 2/12=2,15=1,17=6,18=5,40=1/2;
 3/5=4,6=6,7=11,11=9,16=1,25=1,30=1,74=-58/1,2,8,3;
 4//1;
 5/5=2,38=5/2;
 8/6=1,10=2,108=5/1;
 9/41=5,42=1,48=2,70=2/14;
 6/7=2,8=2,9=2,10=2/1;
 99/5=1,9=1/99;
 Leave Link    1 at Mon Oct  2 17:23:48 2017, MaxMem=  1879048192 cpu:         0.0
 (Enter /share/apps/gaussian/g09_D01/g09/l101.exe)
 ------------------------------
 m1 tddft singlets and triplets
 ------------------------------
 Symbolic Z-matrix:
 Charge =  0 Multiplicity = 1
 C                     0.31813  -0.14937   0.15425 
 C                     0.696    -0.31996   1.54401 
 C                     2.01738  -0.3854    1.91939 
 C                     3.04629  -0.29434   0.97253 
 C                     2.71575  -0.13687  -0.38713 
 C                     1.40769  -0.06589  -0.79258 
 H                    -0.06358  -0.39502   2.31154 
 H                     2.26489  -0.50909   2.96939 
 H                     4.08464  -0.34644   1.28184 
 H                     3.50683  -0.07191  -1.12765 
 H                     1.20138   0.04877  -1.84965 
 C                    -1.0301   -0.06527  -0.24033 
 C                    -1.42557   0.12889  -1.62054 
 C                    -2.73366   0.19385  -1.99354 
 C                    -3.77091   0.07149  -1.03286 
 C                    -3.43688  -0.10556   0.32346 
 C                    -2.12238  -0.16724   0.71537 
 H                    -0.66959   0.22937  -2.38837 
 H                    -3.0147    0.3382   -3.03092 
 O                    -5.0187    0.12706  -1.53028 
 H                    -4.20929  -0.19237   1.07828 
 H                    -1.91162  -0.29723   1.76797 
 C                    -6.1413    0.07565  -0.65915 
 H                    -6.97782  -0.17829  -1.31263 
 H                    -6.02236  -0.74663   0.05656 
 C                    -6.40143   1.40046   0.04411 
 C                    -7.63023   1.32699   0.94783 
 H                    -5.52443   1.6929    0.63132 
 H                    -6.53804   2.17781  -0.71554 
 C                    -7.91779   2.64768   1.65458 
 H                    -8.50372   1.03155   0.35411 
 H                    -7.489     0.53621   1.69491 
 H                    -8.80239   2.5735    2.29213 
 H                    -7.07709   2.94959   2.28627 
 H                    -8.09404   3.45179   0.93391 
 
 NAtoms=     35 NQM=       35 NQMF=       0 NMMI=      0 NMMIF=      0
                NMic=       0 NMicF=      0.
                    Isotopes and Nuclear Properties:
 (Nuclear quadrupole moments (NQMom) in fm**2, nuclear magnetic moments (NMagM)
  in nuclear magnetons)

  Atom         1           2           3           4           5           6           7           8           9          10
 IAtWgt=          12          12          12          12          12          12           1           1           1           1
 AtmWgt=  12.0000000  12.0000000  12.0000000  12.0000000  12.0000000  12.0000000   1.0078250   1.0078250   1.0078250   1.0078250
 NucSpn=           0           0           0           0           0           0           1           1           1           1
 AtZEff=   0.0000000   0.0000000   0.0000000   0.0000000   0.0000000   0.0000000   0.0000000   0.0000000   0.0000000   0.0000000
 NQMom=    0.0000000   0.0000000   0.0000000   0.0000000   0.0000000   0.0000000   0.0000000   0.0000000   0.0000000   0.0000000
 NMagM=    0.0000000   0.0000000   0.0000000   0.0000000   0.0000000   0.0000000   2.7928460   2.7928460   2.7928460   2.7928460
 AtZNuc=   6.0000000   6.0000000   6.0000000   6.0000000   6.0000000   6.0000000   1.0000000   1.0000000   1.0000000   1.0000000

  Atom        11          12          13          14          15          16          17          18          19          20
 IAtWgt=           1          12          12          12          12          12          12           1           1          16
 AtmWgt=   1.0078250  12.0000000  12.0000000  12.0000000  12.0000000  12.0000000  12.0000000   1.0078250   1.0078250  15.9949146
 NucSpn=           1           0           0           0           0           0           0           1           1           0
 AtZEff=   0.0000000   0.0000000   0.0000000   0.0000000   0.0000000   0.0000000   0.0000000   0.0000000   0.0000000   0.0000000
 NQMom=    0.0000000   0.0000000   0.0000000   0.0000000   0.0000000   0.0000000   0.0000000   0.0000000   0.0000000   0.0000000
 NMagM=    2.7928460   0.0000000   0.0000000   0.0000000   0.0000000   0.0000000   0.0000000   2.7928460   2.7928460   0.0000000
 AtZNuc=   1.0000000   6.0000000   6.0000000   6.0000000   6.0000000   6.0000000   6.0000000   1.0000000   1.0000000   8.0000000

  Atom        21          22          23          24          25          26          27          28          29          30
 IAtWgt=           1           1          12           1           1          12          12           1           1          12
 AtmWgt=   1.0078250   1.0078250  12.0000000   1.0078250   1.0078250  12.0000000  12.0000000   1.0078250   1.0078250  12.0000000
 NucSpn=           1           1           0           1           1           0           0           1           1           0
 AtZEff=   0.0000000   0.0000000   0.0000000   0.0000000   0.0000000   0.0000000   0.0000000   0.0000000   0.0000000   0.0000000
 NQMom=    0.0000000   0.0000000   0.0000000   0.0000000   0.0000000   0.0000000   0.0000000   0.0000000   0.0000000   0.0000000
 NMagM=    2.7928460   2.7928460   0.0000000   2.7928460   2.7928460   0.0000000   0.0000000   2.7928460   2.7928460   0.0000000
 AtZNuc=   1.0000000   1.0000000   6.0000000   1.0000000   1.0000000   6.0000000   6.0000000   1.0000000   1.0000000   6.0000000

  Atom        31          32          33          34          35
 IAtWgt=           1           1           1           1           1
 AtmWgt=   1.0078250   1.0078250   1.0078250   1.0078250   1.0078250
 NucSpn=           1           1           1           1           1
 AtZEff=   0.0000000   0.0000000   0.0000000   0.0000000   0.0000000
 NQMom=    0.0000000   0.0000000   0.0000000   0.0000000   0.0000000
 NMagM=    2.7928460   2.7928460   2.7928460   2.7928460   2.7928460
 AtZNuc=   1.0000000   1.0000000   1.0000000   1.0000000   1.0000000
 Leave Link  101 at Mon Oct  2 17:23:48 2017, MaxMem=  1879048192 cpu:         0.1
 (Enter /share/apps/gaussian/g09_D01/g09/l202.exe)
                          Input orientation:                          
 ---------------------------------------------------------------------
 Center     Atomic      Atomic             Coordinates (Angstroms)
 Number     Number       Type             X           Y           Z
 ---------------------------------------------------------------------
      1          6           0        0.318128   -0.149370    0.154250
      2          6           0        0.696000   -0.319956    1.544013
      3          6           0        2.017379   -0.385401    1.919392
      4          6           0        3.046292   -0.294344    0.972525
      5          6           0        2.715748   -0.136874   -0.387130
      6          6           0        1.407687   -0.065892   -0.792582
      7          1           0       -0.063578   -0.395022    2.311537
      8          1           0        2.264888   -0.509088    2.969394
      9          1           0        4.084641   -0.346437    1.281842
     10          1           0        3.506830   -0.071910   -1.127651
     11          1           0        1.201384    0.048774   -1.849650
     12          6           0       -1.030102   -0.065268   -0.240325
     13          6           0       -1.425572    0.128890   -1.620536
     14          6           0       -2.733661    0.193854   -1.993538
     15          6           0       -3.770909    0.071493   -1.032857
     16          6           0       -3.436884   -0.105557    0.323463
     17          6           0       -2.122380   -0.167240    0.715365
     18          1           0       -0.669592    0.229367   -2.388370
     19          1           0       -3.014701    0.338198   -3.030917
     20          8           0       -5.018699    0.127061   -1.530277
     21          1           0       -4.209293   -0.192371    1.078279
     22          1           0       -1.911624   -0.297232    1.767972
     23          6           0       -6.141304    0.075651   -0.659145
     24          1           0       -6.977821   -0.178286   -1.312626
     25          1           0       -6.022359   -0.746634    0.056563
     26          6           0       -6.401431    1.400458    0.044105
     27          6           0       -7.630226    1.326987    0.947834
     28          1           0       -5.524429    1.692902    0.631319
     29          1           0       -6.538040    2.177810   -0.715543
     30          6           0       -7.917785    2.647678    1.654582
     31          1           0       -8.503723    1.031555    0.354105
     32          1           0       -7.488998    0.536205    1.694907
     33          1           0       -8.802390    2.573499    2.292132
     34          1           0       -7.077088    2.949587    2.286266
     35          1           0       -8.094044    3.451792    0.933910
 ---------------------------------------------------------------------
                    Distance matrix (angstroms):
                    1          2          3          4          5
     1  C    0.000000
     2  C    1.450285   0.000000
     3  C    2.461481   1.375222   0.000000
     4  C    2.851924   2.418910   1.401253   0.000000
     5  C    2.458013   2.800395   2.422711   1.408090   0.000000
     6  C    1.445890   2.455753   2.797966   2.419260   1.371296
     7  H    2.204525   1.082445   2.117605   3.387386   3.882537
     8  H    3.441556   2.128119   1.085847   2.155039   3.407062
     9  H    3.936613   3.398871   2.163691   1.084693   2.168698
    10  H    3.437600   3.885882   3.406055   2.161553   1.085542
    11  H    2.198867   3.450844   3.880726   3.389113   2.113464
    12  C    1.407298   2.495627   3.748867   4.259163   3.749409
    13  C    2.503554   3.836261   4.964826   5.186585   4.329255
    14  C    3.747561   4.953871   6.182147   6.514885   5.690869
    15  C    4.263593   5.171728   6.513740   7.115450   6.522047
    16  C    3.759078   4.314677   5.689841   6.518320   6.193610
    17  C    2.504246   2.941640   4.316814   5.176626   4.962247
    18  H    2.753897   4.198837   5.114154   5.037627   3.949636
    19  H    4.635813   5.927264   7.095843   7.291316   6.328772
    20  O    5.603193   6.504527   7.852976   8.454920   7.822923
    21  H    4.620954   4.929005   6.286189   7.257072   7.078608
    22  H    2.756403   2.617322   3.932908   5.021322   5.107127
    23  C    6.514331   7.194382   8.568870   9.338692   8.863776
    24  H    7.442005   8.189505   9.560463  10.281937   9.737738
    25  H    6.369305   6.894266   8.260630   9.126006   8.770586
    26  C    6.896852   7.455406   8.808085   9.643329   9.255934
    27  C    8.123161   8.508460   9.846445  10.798952  10.533954
    28  H    6.144675   6.601390   7.928262   8.804705   8.502108
    29  H    7.292417   7.979709   9.311720  10.040943   9.544538
    30  C    8.826366   9.111332  10.391207  11.372409  11.180087
    31  H    8.902785   9.374293  10.730866  11.642306  11.304476
    32  H    7.987168   8.231037   9.553583  10.592638  10.436702
    33  H    9.755429   9.957468  11.223254  12.262021  12.132274
    34  H    8.296882   8.465326   9.693610  10.711294  10.610039
    35  H    9.183729   9.584528  10.859839  11.753387  11.466267
                    6          7          8          9         10
     6  C    0.000000
     7  H    3.450870   0.000000
     8  H    3.883771   2.422301   0.000000
     9  H    3.398238   4.274383   2.487124   0.000000
    10  H    2.125725   4.967920   4.303408   2.492968   0.000000
    11  H    1.083098   4.371792   4.966431   4.274998   2.418869
    12  C    2.499561   2.748619   4.621280   5.343842   4.622893
    13  C    2.958176   4.194128   5.924016   6.245973   4.961033
    14  C    4.319783   5.099979   7.078864   7.583487   6.305880
    15  C    5.185987   5.014670   7.265393   8.200132   7.279769
    16  C    4.971619   3.926248   6.298729   7.586162   7.093802
    17  C    3.839993   2.615017   4.944252   6.235392   5.924002
    18  H    2.636059   4.779774   6.153221   6.033634   4.372949
    19  H    4.973022   6.147239   8.037144   8.334823   6.805952
    20  O    6.471465   6.291687   8.585008   9.539550   8.537350
    21  H    5.921704   4.330005   6.752159   8.297862   8.026157
    22  H    4.198545   1.928808   4.351040   6.016140   6.147768
    23  C    7.551497   6.781242   9.174545  10.417079   9.660629
    24  H    8.402370   7.809500  10.191800  11.363873  10.486822
    25  H    7.509330   6.380878   8.787461  10.188862   9.626165
    26  C    7.989528   6.966590   9.343916  10.702399  10.085361
    27  C    9.308761   7.879033  10.265045  11.838497  11.414840
    28  H    7.292125   6.083046   8.425486   9.844608   9.368681
    29  H    8.256798   7.596140   9.914117  11.099672  10.301965
    30  C   10.015813   8.448561  10.741542  12.375859  12.068919
    31  H   10.037695   8.780815  11.188221  12.697498  12.151815
    32  H    9.257490   7.508947   9.892181  11.614594  11.368591
    33  H   10.987607   9.229265  11.508504  13.252256  13.046456
    34  H    9.516503   7.770223   9.985069  11.681474  11.524044
    35  H   10.278024   9.010229  11.275604  12.761974  12.298243
                   11         12         13         14         15
    11  H    0.000000
    12  C    2.753627   0.000000
    13  C    2.638145   1.448819   0.000000
    14  C    3.940347   2.458254   1.361781   0.000000
    15  C    5.038984   2.856367   2.418526   1.419071   0.000000
    16  C    5.124429   2.472262   2.807040   2.439808   1.408021
    17  C    4.203971   1.454927   2.455538   2.800394   2.414730
    18  H    1.955348   2.197925   1.082206   2.101793   3.388290
    19  H    4.387998   3.448017   2.135021   1.084423   2.152957
    20  O    6.228769   4.196412   3.594261   2.332482   1.344431
    21  H    6.156813   3.444144   3.890490   3.429682   2.172257
    22  H    4.785157   2.205481   3.449611   3.881478   3.381944
    23  C    7.438622   5.130268   4.813028   3.661503   2.399677
    24  H    8.199960   6.044664   5.569258   4.314513   3.228768
    25  H    7.513241   5.047280   4.970881   3.987852   2.631576
    26  C    7.950859   5.574982   5.398804   4.365824   3.137776
    27  C    9.351849   6.849214   6.821268   5.823402   4.515942
    28  H    7.354925   4.904070   4.931289   4.114050   2.910890
    29  H    8.106644   5.966122   5.581614   4.476902   3.492030
    30  C   10.109065   7.641396   7.695422   6.797439   5.572759
    31  H   10.000575   7.577030   7.403663   6.285442   5.024431
    32  H    9.398096   6.769360   6.922659   6.027857   4.634743
    33  H   11.117738   8.589813   8.700720   7.801227   6.529272
    34  H    9.698124   7.213810   7.426915   6.691498   5.498256
    35  H   10.282690   7.977958   7.876255   6.922270   5.829587
                   16         17         18         19         20
    16  C    0.000000
    17  C    1.373067   0.000000
    18  H    3.888974   3.449791   0.000000
    19  H    3.409842   3.884113   2.433978   0.000000
    20  O    2.447979   3.676708   4.434131   2.512470   0.000000
    21  H    1.083466   2.118382   4.972424   4.312081   2.749862
    22  H    2.109446   1.081341   4.369797   4.964865   4.551086
    23  C    2.883096   4.254412   5.740512   3.933177   1.421885
    24  H    3.901322   5.261956   6.412266   4.350356   1.994685
    25  H    2.677106   3.997443   5.965098   4.444705   2.070927
    26  C    3.336864   4.606359   6.335800   4.696179   2.451972
    27  C    4.475057   5.711666   7.796503   6.173430   3.794856
    28  H    2.772557   3.878289   5.901686   4.641759   2.716637
    29  H    3.988793   5.200463   6.405737   4.599896   2.679134
    30  C    5.425003   6.510961   8.644651   7.164344   4.990144
    31  H    5.192959   6.503011   8.338962   6.486022   4.063791
    32  H    4.325777   5.500448   7.954345   6.510910   4.083086
    33  H    6.312025   7.390560   9.671838   8.174886   5.908654
    34  H    5.141749   6.060649   8.384976   7.182950   5.173936
    35  H    5.892072   6.986124   8.748946   7.156399   5.155948
                   21         22         23         24         25
    21  H    0.000000
    22  H    2.401240   0.000000
    23  C    2.612115   4.890821   0.000000
    24  H    3.658056   5.930479   1.091459   0.000000
    25  H    2.153676   4.475380   1.096603   1.763691   0.000000
    26  C    2.900360   5.100219   1.522281   2.159948   2.180334
    27  C    3.745430   6.001093   2.522917   2.793055   2.771192
    28  H    2.341711   4.278431   2.159012   3.064737   2.555311
    29  H    3.776059   5.804947   2.140012   2.470041   3.068297
    30  C    4.706476   6.690241   3.889028   4.204037   4.203291
    31  H    4.523776   6.871715   2.742526   2.563218   3.067190
    32  H    3.415775   5.639775   2.751354   3.133218   2.545757
    33  H    5.497274   7.483214   4.693683   4.888318   4.873359
    34  H    4.422147   6.123110   4.220266   4.769221   4.443656
    35  H    5.328420   7.278266   4.212997   4.412521   4.763234
                   26         27         28         29         30
    26  C    0.000000
    27  C    1.527109   0.000000
    28  H    1.095206   2.160661   0.000000
    29  H    1.095447   2.164161   1.754018   0.000000
    30  C    2.539394   1.525257   2.772511   2.782439   0.000000
    31  H    2.156808   1.096718   3.064379   2.514350   2.155555
    32  H    2.157518   1.096996   2.515691   3.067484   2.154948
    33  H    3.492027   2.175982   3.778727   3.785493   1.092931
    34  H    2.807775   2.174901   2.594004   3.145961   1.094050
    35  H    2.804401   2.174883   3.128606   2.600937   1.094091
                   31         32         33         34         35
    31  H    0.000000
    32  H    1.752937   0.000000
    33  H    2.494542   2.496446   0.000000
    34  H    3.073659   2.518688   1.765827   0.000000
    35  H    2.522213   3.073409   1.765763   1.765014   0.000000
 Symmetry turned off by external request.
 Stoichiometry    C16H18O
 Framework group  C1[X(C16H18O)]
 Deg. of freedom    99
 Full point group                 C1      NOp   1
 Rotational constants (GHZ):      1.2399880      0.1681469      0.1533398
 Leave Link  202 at Mon Oct  2 17:23:48 2017, MaxMem=  1879048192 cpu:         0.0
 (Enter /share/apps/gaussian/g09_D01/g09/l301.exe)
 Standard basis: 6-311+G(d) (5D, 7F)
 Ernie: Thresh=  0.10000D-02 Tol=  0.10000D-05 Strict=F.
   428 basis functions,   702 primitive gaussians,   445 cartesian basis functions
    61 alpha electrons       61 beta electrons
       nuclear repulsion energy      1075.8945644849 Hartrees.
 IExCor= 4639 DFT=T Ex+Corr=wB97XD ExCW=0 ScaHFX=  1.000000
 ScaDFX=  1.000000  1.000000  1.000000  1.000000 ScalE2=  1.000000  1.000000
 IRadAn=      0 IRanWt=     -1 IRanGd=            0 ICorTp=0 IEmpDi=121
  HFx wShort=  0.000000 wLong=  0.200000 cFull=  0.222036 cShort=  0.000000 cLong=  0.777964
  DFx wShort=  0.000000 wLong=  0.200000 cFull=  0.000000 cShort=  0.000000 cLong=  1.000000
 NAtoms=   35 NActive=   35 NUniq=   35 SFac= 1.00D+00 NAtFMM=   60 NAOKFM=F Big=F
 Integral buffers will be    131072 words long.
 Raffenetti 1 integral format.
 Two-electron integral symmetry is turned off.
 R6Disp:  Grimme-D2 Dispersion energy=       -0.0223698072 Hartrees.
 Nuclear repulsion after empirical dispersion term =     1075.8721946777 Hartrees.
 Leave Link  301 at Mon Oct  2 17:23:48 2017, MaxMem=  1879048192 cpu:         0.1
 (Enter /share/apps/gaussian/g09_D01/g09/l302.exe)
 NPDir=0 NMtPBC=     1 NCelOv=     1 NCel=       1 NClECP=     1 NCelD=      1
         NCelK=      1 NCelE2=     1 NClLst=     1 CellRange=     0.0.
 One-electron integrals computed using PRISM.
 NBasis=   428 RedAO= T EigKep=  1.13D-06  NBF=   428
 NBsUse=   424 1.00D-06 EigRej=  8.57D-07 NBFU=   424
 Precomputing XC quadrature grid using
 IXCGrd= 4 IRadAn=           0 IRanWt=          -1 IRanGd=           0 AccXCQ= 0.00D+00.
 Generated NRdTot=       0 NPtTot=           0 NUsed=           0 NTot=          32
 NSgBfM=   437   437   437   437   437 MxSgAt=    35 MxSgA2=    35.
 Leave Link  302 at Mon Oct  2 17:23:49 2017, MaxMem=  1879048192 cpu:         1.4
 (Enter /share/apps/gaussian/g09_D01/g09/l308.exe)
 Leave Link  308 at Mon Oct  2 17:23:50 2017, MaxMem=  1879048192 cpu:         0.1
 (Enter /share/apps/gaussian/g09_D01/g09/l303.exe)
 DipDrv:  MaxL=1.
 Leave Link  303 at Mon Oct  2 17:23:50 2017, MaxMem=  1879048192 cpu:         0.1
 (Enter /share/apps/gaussian/g09_D01/g09/l401.exe)
 ExpMin= 4.38D-02 ExpMax= 8.59D+03 ExpMxC= 1.30D+03 IAcc=2 IRadAn=         4 AccDes= 0.00D+00
 Harris functional with IExCor= 4639 and IRadAn=       4 diagonalized for initial guess.
 HarFok:  IExCor= 4639 AccDes= 0.00D+00 IRadAn=         4 IDoV= 1 UseB2=F ITyADJ=14
 ICtDFT=  3500011 ScaDFX=  1.000000  1.000000  1.000000  1.000000
 FoFCou: FMM=F IPFlag=           0 FMFlag=      100000 FMFlg1=           0
         NFxFlg=           0 DoJE=T BraDBF=F KetDBF=T FulRan=T
         wScrn=  0.000000 ICntrl=     500 IOpCl=  0 I1Cent=   200000004 NGrid=           0
         NMat0=    1 NMatS0=      1 NMatT0=    0 NMatD0=    1 NMtDS0=    0 NMtDT0=    0
 Symmetry not used in FoFCou.
 Harris En= -664.027781680327    
 JPrj=0 DoOrth=F DoCkMO=F.
 Leave Link  401 at Mon Oct  2 17:23:58 2017, MaxMem=  1879048192 cpu:        12.4
 (Enter /share/apps/gaussian/g09_D01/g09/l502.exe)
 Closed shell SCF:
 Using DIIS extrapolation, IDIIS=  1040.
 Two-electron integral symmetry not used.
 IVT=      618035 IEndB=      618035 NGot=  1879048192 MDV=  1878645268
 LenX=  1878645268 LenY=  1878446798
 Requested convergence on RMS density matrix=1.00D-08 within 128 cycles.
 Requested convergence on MAX density matrix=1.00D-06.
 Requested convergence on             energy=1.00D-06.
 No special actions if energy rises.
 Fock matrices will be formed incrementally for  20 cycles.

 Cycle   1  Pass 1  IDiag  1:
 FoFJK:  IHMeth= 1 ICntrl=       0 DoSepK=T KAlg= 0 I1Cent=   0 FoldK=F
 IRaf=         1 NMat=   1 IRICut=       1 DoRegI=T DoRafI=F ISym2E= 0.
 FoFCou: FMM=F IPFlag=           0 FMFlag=      100000 FMFlg1=           0
         NFxFlg=           0 DoJE=T BraDBF=F KetDBF=F FulRan=T
         wScrn=  0.000000 ICntrl=     500 IOpCl=  0 I1Cent=           0 NGrid=           0
         NMat0=    1 NMatS0=      1 NMatT0=    0 NMatD0=    1 NMtDS0=    0 NMtDT0=    0
 Symmetry not used in FoFCou.
 E= -695.440795962121    
 DIIS: error= 6.30D-02 at cycle   1 NSaved=   1.
 NSaved= 1 IEnMin= 1 EnMin= -695.440795962121     IErMin= 1 ErrMin= 6.30D-02
 ErrMax= 6.30D-02  0.00D+00 EMaxC= 1.00D-01 BMatC= 1.51D+00 BMatP= 1.51D+00
 IDIUse=3 WtCom= 3.70D-01 WtEn= 6.30D-01
 Coeff-Com:  0.100D+01
 Coeff-En:   0.100D+01
 Coeff:      0.100D+01
 Gap=     0.312 Goal=   None    Shift=    0.000
 GapD=    0.312 DampG=1.000 DampE=0.500 DampFc=0.5000 IDamp=-1.
 Damping current iteration by 5.00D-01
 RMSDP=2.31D-02 MaxDP=1.84D+00              OVMax= 1.46D-01

 Cycle   2  Pass 1  IDiag  1:
 RMSU=  4.73D-03    CP:  8.47D-01
 E= -695.547459012621     Delta-E=       -0.106663050501 Rises=F Damp=T
 DIIS: error= 3.08D-02 at cycle   2 NSaved=   2.
 NSaved= 2 IEnMin= 2 EnMin= -695.547459012621     IErMin= 2 ErrMin= 3.08D-02
 ErrMax= 3.08D-02  0.00D+00 EMaxC= 1.00D-01 BMatC= 3.21D-01 BMatP= 1.51D+00
 IDIUse=3 WtCom= 6.92D-01 WtEn= 3.08D-01
 Coeff-Com: -0.602D+00 0.160D+01
 Coeff-En:   0.000D+00 0.100D+01
 Coeff:     -0.417D+00 0.142D+01
 Gap=     0.303 Goal=   None    Shift=    0.000
 RMSDP=1.01D-02 MaxDP=1.00D+00 DE=-1.07D-01 OVMax= 2.03D-01

 Cycle   3  Pass 1  IDiag  1:
 RMSU=  6.34D-03    CP:  7.33D-01  9.10D-01
 E= -695.604996329951     Delta-E=       -0.057537317329 Rises=F Damp=F
 DIIS: error= 1.32D-02 at cycle   3 NSaved=   3.
 NSaved= 3 IEnMin= 3 EnMin= -695.604996329951     IErMin= 3 ErrMin= 1.32D-02
 ErrMax= 1.32D-02  0.00D+00 EMaxC= 1.00D-01 BMatC= 8.52D-02 BMatP= 3.21D-01
 IDIUse=3 WtCom= 8.68D-01 WtEn= 1.32D-01
 Coeff-Com: -0.364D+00 0.780D+00 0.584D+00
 Coeff-En:   0.000D+00 0.000D+00 0.100D+01
 Coeff:     -0.316D+00 0.677D+00 0.639D+00
 Gap=     0.302 Goal=   None    Shift=    0.000
 RMSDP=6.51D-03 MaxDP=5.23D-01 DE=-5.75D-02 OVMax= 7.50D-02

 Cycle   4  Pass 1  IDiag  1:
 RMSU=  1.56D-03    CP:  6.70D-01  1.52D+00  4.27D-01
 E= -695.665827261777     Delta-E=       -0.060830931826 Rises=F Damp=F
 DIIS: error= 3.26D-03 at cycle   4 NSaved=   4.
 NSaved= 4 IEnMin= 4 EnMin= -695.665827261777     IErMin= 4 ErrMin= 3.26D-03
 ErrMax= 3.26D-03  0.00D+00 EMaxC= 1.00D-01 BMatC= 5.43D-03 BMatP= 8.52D-02
 IDIUse=3 WtCom= 9.67D-01 WtEn= 3.26D-02
 Coeff-Com: -0.135D+00 0.292D+00 0.331D+00 0.513D+00
 Coeff-En:   0.000D+00 0.000D+00 0.000D+00 0.100D+01
 Coeff:     -0.131D+00 0.282D+00 0.320D+00 0.529D+00
 Gap=     0.273 Goal=   None    Shift=    0.000
 RMSDP=7.88D-04 MaxDP=4.27D-02 DE=-6.08D-02 OVMax= 1.41D-02

 Cycle   5  Pass 1  IDiag  1:
 RMSU=  4.77D-04    CP:  6.76D-01  1.49D+00  4.93D-01  8.57D-01
 E= -695.669659598705     Delta-E=       -0.003832336928 Rises=F Damp=F
 DIIS: error= 4.45D-04 at cycle   5 NSaved=   5.
 NSaved= 5 IEnMin= 5 EnMin= -695.669659598705     IErMin= 5 ErrMin= 4.45D-04
 ErrMax= 4.45D-04  0.00D+00 EMaxC= 1.00D-01 BMatC= 5.89D-05 BMatP= 5.43D-03
 IDIUse=3 WtCom= 9.96D-01 WtEn= 4.45D-03
 Coeff-Com:  0.259D-01-0.553D-01-0.128D-01 0.974D-01 0.945D+00
 Coeff-En:   0.000D+00 0.000D+00 0.000D+00 0.000D+00 0.100D+01
 Coeff:      0.257D-01-0.551D-01-0.127D-01 0.969D-01 0.945D+00
 Gap=     0.274 Goal=   None    Shift=    0.000
 RMSDP=2.55D-04 MaxDP=2.05D-02 DE=-3.83D-03 OVMax= 6.16D-03

 Cycle   6  Pass 1  IDiag  1:
 RMSU=  1.72D-04    CP:  6.76D-01  1.51D+00  4.93D-01  9.41D-01  1.10D+00
 E= -695.669751261612     Delta-E=       -0.000091662907 Rises=F Damp=F
 DIIS: error= 3.91D-04 at cycle   6 NSaved=   6.
 NSaved= 6 IEnMin= 6 EnMin= -695.669751261612     IErMin= 6 ErrMin= 3.91D-04
 ErrMax= 3.91D-04  0.00D+00 EMaxC= 1.00D-01 BMatC= 2.12D-05 BMatP= 5.89D-05
 IDIUse=3 WtCom= 9.96D-01 WtEn= 3.91D-03
 Coeff-Com:  0.215D-01-0.462D-01-0.295D-01 0.336D-02 0.458D+00 0.593D+00
 Coeff-En:   0.000D+00 0.000D+00 0.000D+00 0.000D+00 0.000D+00 0.100D+01
 Coeff:      0.214D-01-0.460D-01-0.294D-01 0.335D-02 0.456D+00 0.594D+00
 Gap=     0.274 Goal=   None    Shift=    0.000
 RMSDP=7.24D-05 MaxDP=4.86D-03 DE=-9.17D-05 OVMax= 2.30D-03

 Cycle   7  Pass 1  IDiag  1:
 RMSU=  4.03D-05    CP:  6.75D-01  1.52D+00  4.90D-01  9.55D-01  1.19D+00
                    CP:  1.00D+00
 E= -695.669778306862     Delta-E=       -0.000027045250 Rises=F Damp=F
 DIIS: error= 1.16D-04 at cycle   7 NSaved=   7.
 NSaved= 7 IEnMin= 7 EnMin= -695.669778306862     IErMin= 7 ErrMin= 1.16D-04
 ErrMax= 1.16D-04  0.00D+00 EMaxC= 1.00D-01 BMatC= 1.30D-06 BMatP= 2.12D-05
 IDIUse=3 WtCom= 9.99D-01 WtEn= 1.16D-03
 Coeff-Com:  0.137D-02-0.291D-02-0.492D-02-0.116D-01-0.479D-01 0.137D+00
 Coeff-Com:  0.929D+00
 Coeff-En:   0.000D+00 0.000D+00 0.000D+00 0.000D+00 0.000D+00 0.000D+00
 Coeff-En:   0.100D+01
 Coeff:      0.137D-02-0.291D-02-0.492D-02-0.116D-01-0.478D-01 0.136D+00
 Coeff:      0.929D+00
 Gap=     0.275 Goal=   None    Shift=    0.000
 RMSDP=4.36D-05 MaxDP=5.11D-03 DE=-2.70D-05 OVMax= 1.51D-03

 Cycle   8  Pass 1  IDiag  1:
 RMSU=  1.55D-05    CP:  6.76D-01  1.52D+00  4.89D-01  9.63D-01  1.20D+00
                    CP:  1.13D+00  1.13D+00
 E= -695.669782144735     Delta-E=       -0.000003837874 Rises=F Damp=F
 DIIS: error= 3.13D-05 at cycle   8 NSaved=   8.
 NSaved= 8 IEnMin= 8 EnMin= -695.669782144735     IErMin= 8 ErrMin= 3.13D-05
 ErrMax= 3.13D-05  0.00D+00 EMaxC= 1.00D-01 BMatC= 3.45D-07 BMatP= 1.30D-06
 IDIUse=1 WtCom= 1.00D+00 WtEn= 0.00D+00
 Coeff-Com: -0.188D-02 0.410D-02 0.199D-02-0.406D-02-0.744D-01-0.216D-01
 Coeff-Com:  0.374D+00 0.722D+00
 Coeff:     -0.188D-02 0.410D-02 0.199D-02-0.406D-02-0.744D-01-0.216D-01
 Coeff:      0.374D+00 0.722D+00
 Gap=     0.275 Goal=   None    Shift=    0.000
 RMSDP=1.25D-05 MaxDP=1.65D-03 DE=-3.84D-06 OVMax= 4.23D-04

 Cycle   9  Pass 1  IDiag  1:
 RMSU=  7.02D-06    CP:  6.76D-01  1.52D+00  4.89D-01  9.62D-01  1.21D+00
                    CP:  1.16D+00  1.21D+00  8.77D-01
 E= -695.669782811578     Delta-E=       -0.000000666842 Rises=F Damp=F
 DIIS: error= 1.36D-05 at cycle   9 NSaved=   9.
 NSaved= 9 IEnMin= 9 EnMin= -695.669782811578     IErMin= 9 ErrMin= 1.36D-05
 ErrMax= 1.36D-05  0.00D+00 EMaxC= 1.00D-01 BMatC= 4.24D-08 BMatP= 3.45D-07
 IDIUse=1 WtCom= 1.00D+00 WtEn= 0.00D+00
 Coeff-Com: -0.500D-03 0.108D-02 0.137D-02 0.932D-03-0.110D-01-0.329D-01
 Coeff-Com: -0.763D-01 0.110D+00 0.101D+01
 Coeff:     -0.500D-03 0.108D-02 0.137D-02 0.932D-03-0.110D-01-0.329D-01
 Coeff:     -0.763D-01 0.110D+00 0.101D+01
 Gap=     0.275 Goal=   None    Shift=    0.000
 RMSDP=9.61D-06 MaxDP=8.64D-04 DE=-6.67D-07 OVMax= 3.69D-04

 Cycle  10  Pass 1  IDiag  1:
 RMSU=  4.02D-06    CP:  6.76D-01  1.52D+00  4.89D-01  9.61D-01  1.21D+00
                    CP:  1.18D+00  1.25D+00  9.81D-01  1.33D+00
 E= -695.669782952514     Delta-E=       -0.000000140936 Rises=F Damp=F
 DIIS: error= 6.44D-06 at cycle  10 NSaved=  10.
 NSaved=10 IEnMin=10 EnMin= -695.669782952514     IErMin=10 ErrMin= 6.44D-06
 ErrMax= 6.44D-06  0.00D+00 EMaxC= 1.00D-01 BMatC= 7.40D-09 BMatP= 4.24D-08
 IDIUse=1 WtCom= 1.00D+00 WtEn= 0.00D+00
 Coeff-Com:  0.362D-04-0.840D-04 0.344D-03 0.110D-02 0.467D-02-0.850D-02
 Coeff-Com: -0.646D-01-0.733D-01 0.352D+00 0.789D+00
 Coeff:      0.362D-04-0.840D-04 0.344D-03 0.110D-02 0.467D-02-0.850D-02
 Coeff:     -0.646D-01-0.733D-01 0.352D+00 0.789D+00
 Gap=     0.275 Goal=   None    Shift=    0.000
 RMSDP=1.77D-06 MaxDP=1.02D-04 DE=-1.41D-07 OVMax= 9.56D-05

 Cycle  11  Pass 1  IDiag  1:
 RMSU=  1.02D-06    CP:  6.76D-01  1.52D+00  4.89D-01  9.61D-01  1.21D+00
                    CP:  1.18D+00  1.25D+00  1.02D+00  1.42D+00  1.02D+00
 E= -695.669782969554     Delta-E=       -0.000000017041 Rises=F Damp=F
 DIIS: error= 1.88D-06 at cycle  11 NSaved=  11.
 NSaved=11 IEnMin=11 EnMin= -695.669782969554     IErMin=11 ErrMin= 1.88D-06
 ErrMax= 1.88D-06  0.00D+00 EMaxC= 1.00D-01 BMatC= 1.11D-09 BMatP= 7.40D-09
 IDIUse=1 WtCom= 1.00D+00 WtEn= 0.00D+00
 Coeff-Com:  0.118D-03-0.253D-03-0.137D-03 0.360D-03 0.341D-02 0.334D-02
 Coeff-Com: -0.430D-02-0.504D-01-0.660D-01 0.232D+00 0.881D+00
 Coeff:      0.118D-03-0.253D-03-0.137D-03 0.360D-03 0.341D-02 0.334D-02
 Coeff:     -0.430D-02-0.504D-01-0.660D-01 0.232D+00 0.881D+00
 Gap=     0.275 Goal=   None    Shift=    0.000
 RMSDP=1.04D-06 MaxDP=6.95D-05 DE=-1.70D-08 OVMax= 4.38D-05

 Cycle  12  Pass 1  IDiag  1:
 RMSU=  3.83D-07    CP:  6.76D-01  1.52D+00  4.89D-01  9.61D-01  1.21D+00
                    CP:  1.18D+00  1.25D+00  1.02D+00  1.46D+00  1.11D+00
                    CP:  1.22D+00
 E= -695.669782972472     Delta-E=       -0.000000002918 Rises=F Damp=F
 DIIS: error= 7.56D-07 at cycle  12 NSaved=  12.
 NSaved=12 IEnMin=12 EnMin= -695.669782972472     IErMin=12 ErrMin= 7.56D-07
 ErrMax= 7.56D-07  0.00D+00 EMaxC= 1.00D-01 BMatC= 1.33D-10 BMatP= 1.11D-09
 IDIUse=1 WtCom= 1.00D+00 WtEn= 0.00D+00
 Coeff-Com:  0.349D-04-0.740D-04-0.861D-04 0.113D-04 0.326D-03 0.208D-02
 Coeff-Com:  0.787D-02-0.594D-02-0.634D-01-0.424D-01 0.242D+00 0.859D+00
 Coeff:      0.349D-04-0.740D-04-0.861D-04 0.113D-04 0.326D-03 0.208D-02
 Coeff:      0.787D-02-0.594D-02-0.634D-01-0.424D-01 0.242D+00 0.859D+00
 Gap=     0.275 Goal=   None    Shift=    0.000
 RMSDP=4.05D-07 MaxDP=2.38D-05 DE=-2.92D-09 OVMax= 1.30D-05

 Cycle  13  Pass 1  IDiag  1:
 RMSU=  1.57D-07    CP:  6.76D-01  1.52D+00  4.89D-01  9.61D-01  1.21D+00
                    CP:  1.18D+00  1.25D+00  1.02D+00  1.47D+00  1.15D+00
                    CP:  1.32D+00  1.17D+00
 E= -695.669782972759     Delta-E=       -0.000000000286 Rises=F Damp=F
 DIIS: error= 3.36D-07 at cycle  13 NSaved=  13.
 NSaved=13 IEnMin=13 EnMin= -695.669782972759     IErMin=13 ErrMin= 3.36D-07
 ErrMax= 3.36D-07  0.00D+00 EMaxC= 1.00D-01 BMatC= 2.53D-11 BMatP= 1.33D-10
 IDIUse=1 WtCom= 1.00D+00 WtEn= 0.00D+00
 Coeff-Com: -0.240D-05 0.558D-05-0.113D-04-0.404D-04-0.383D-03 0.314D-03
 Coeff-Com:  0.355D-02 0.494D-02-0.134D-01-0.496D-01-0.426D-01 0.333D+00
 Coeff-Com:  0.764D+00
 Coeff:     -0.240D-05 0.558D-05-0.113D-04-0.404D-04-0.383D-03 0.314D-03
 Coeff:      0.355D-02 0.494D-02-0.134D-01-0.496D-01-0.426D-01 0.333D+00
 Coeff:      0.764D+00
 Gap=     0.275 Goal=   None    Shift=    0.000
 RMSDP=1.01D-07 MaxDP=1.01D-05 DE=-2.86D-10 OVMax= 3.93D-06

 Cycle  14  Pass 1  IDiag  1:
 RMSU=  4.39D-08    CP:  6.76D-01  1.52D+00  4.89D-01  9.61D-01  1.21D+00
                    CP:  1.18D+00  1.25D+00  1.02D+00  1.47D+00  1.15D+00
                    CP:  1.34D+00  1.27D+00  1.06D+00
 E= -695.669782972852     Delta-E=       -0.000000000093 Rises=F Damp=F
 DIIS: error= 5.85D-08 at cycle  14 NSaved=  14.
 NSaved=14 IEnMin=14 EnMin= -695.669782972852     IErMin=14 ErrMin= 5.85D-08
 ErrMax= 5.85D-08  0.00D+00 EMaxC= 1.00D-01 BMatC= 2.23D-12 BMatP= 2.53D-11
 IDIUse=1 WtCom= 1.00D+00 WtEn= 0.00D+00
 Coeff-Com: -0.243D-05 0.525D-05 0.311D-05-0.179D-04-0.132D-03-0.883D-04
 Coeff-Com:  0.451D-04 0.191D-02 0.298D-02-0.901D-02-0.410D-01 0.287D-03
 Coeff-Com:  0.221D+00 0.824D+00
 Coeff:     -0.243D-05 0.525D-05 0.311D-05-0.179D-04-0.132D-03-0.883D-04
 Coeff:      0.451D-04 0.191D-02 0.298D-02-0.901D-02-0.410D-01 0.287D-03
 Coeff:      0.221D+00 0.824D+00
 Gap=     0.275 Goal=   None    Shift=    0.000
 RMSDP=4.97D-08 MaxDP=4.27D-06 DE=-9.32D-11 OVMax= 1.11D-06

 Cycle  15  Pass 1  IDiag  1:
 RMSU=  1.93D-08    CP:  6.76D-01  1.52D+00  4.89D-01  9.61D-01  1.21D+00
                    CP:  1.18D+00  1.25D+00  1.02D+00  1.46D+00  1.15D+00
                    CP:  1.34D+00  1.30D+00  1.11D+00  1.04D+00
 E= -695.669782972834     Delta-E=        0.000000000018 Rises=F Damp=F
 DIIS: error= 3.10D-08 at cycle  15 NSaved=  15.
 NSaved=15 IEnMin=14 EnMin= -695.669782972852     IErMin=15 ErrMin= 3.10D-08
 ErrMax= 3.10D-08  0.00D+00 EMaxC= 1.00D-01 BMatC= 2.43D-13 BMatP= 2.23D-12
 IDIUse=1 WtCom= 1.00D+00 WtEn= 0.00D+00
 Coeff-Com: -0.711D-06 0.150D-05 0.240D-05-0.226D-05-0.110D-04-0.521D-04
 Coeff-Com: -0.346D-03 0.189D-03 0.235D-02 0.197D-02-0.944D-02-0.306D-01
 Coeff-Com: -0.772D-03 0.273D+00 0.764D+00
 Coeff:     -0.711D-06 0.150D-05 0.240D-05-0.226D-05-0.110D-04-0.521D-04
 Coeff:     -0.346D-03 0.189D-03 0.235D-02 0.197D-02-0.944D-02-0.306D-01
 Coeff:     -0.772D-03 0.273D+00 0.764D+00
 Gap=     0.275 Goal=   None    Shift=    0.000
 RMSDP=1.80D-08 MaxDP=2.06D-06 DE= 1.80D-11 OVMax= 3.08D-07

 Cycle  16  Pass 1  IDiag  1:
 RMSU=  5.66D-09    CP:  6.76D-01  1.52D+00  4.89D-01  9.61D-01  1.21D+00
                    CP:  1.18D+00  1.25D+00  1.02D+00  1.46D+00  1.14D+00
                    CP:  1.34D+00  1.30D+00  1.13D+00  1.13D+00  1.07D+00
 E= -695.669782972863     Delta-E=       -0.000000000029 Rises=F Damp=F
 DIIS: error= 9.23D-09 at cycle  16 NSaved=  16.
 NSaved=16 IEnMin=16 EnMin= -695.669782972863     IErMin=16 ErrMin= 9.23D-09
 ErrMax= 9.23D-09  0.00D+00 EMaxC= 1.00D-01 BMatC= 3.16D-14 BMatP= 2.43D-13
 IDIUse=1 WtCom= 1.00D+00 WtEn= 0.00D+00
 Coeff-Com: -0.581D-07 0.107D-06 0.424D-06 0.170D-05 0.104D-04-0.487D-06
 Coeff-Com: -0.935D-04-0.158D-03 0.258D-03 0.154D-02 0.257D-02-0.794D-02
 Coeff-Com: -0.305D-01-0.391D-01 0.221D+00 0.852D+00
 Coeff:     -0.581D-07 0.107D-06 0.424D-06 0.170D-05 0.104D-04-0.487D-06
 Coeff:     -0.935D-04-0.158D-03 0.258D-03 0.154D-02 0.257D-02-0.794D-02
 Coeff:     -0.305D-01-0.391D-01 0.221D+00 0.852D+00
 Gap=     0.275 Goal=   None    Shift=    0.000
 RMSDP=6.62D-09 MaxDP=4.28D-07 DE=-2.86D-11 OVMax= 1.19D-07

 SCF Done:  E(RwB97XD) =  -695.669782973     A.U. after   16 cycles
            NFock= 16  Conv=0.66D-08     -V/T= 2.0045
 KE= 6.925556628469D+02 PE=-3.767677749013D+03 EE= 1.303580108516D+03
 Leave Link  502 at Mon Oct  2 17:43:23 2017, MaxMem=  1879048192 cpu:      1173.9
 (Enter /share/apps/gaussian/g09_D01/g09/l801.exe)
 DoSCS=F DFT=T ScalE2(SS,OS)=  1.000000  1.000000
 ExpMin= 4.38D-02 ExpMax= 8.59D+03 ExpMxC= 1.30D+03 IAcc=3 IRadAn=         5 AccDes= 0.00D+00
 HarFok:  IExCor=  205 AccDes= 0.00D+00 IRadAn=         5 IDoV=-2 UseB2=F ITyADJ=14
 ICtDFT= 12500011 ScaDFX=  1.000000  1.000000  1.000000  1.000000
 Largest valence mixing into a core orbital is  5.66D-05
 Largest core mixing into a valence orbital is  1.45D-05
 Range of M.O.s used for correlation:    18   424
 NBasis=   428 NAE=    61 NBE=    61 NFC=    17 NFV=     0
 NROrb=    407 NOA=    44 NOB=    44 NVA=   363 NVB=   363

 **** Warning!!: The largest alpha MO coefficient is  0.16031480D+03

 Leave Link  801 at Mon Oct  2 17:43:25 2017, MaxMem=  1879048192 cpu:         1.9
 (Enter /share/apps/gaussian/g09_D01/g09/l914.exe)
 RHF ground state
 MDV=  1879048192 DFT=T DoStab=F Mixed=T DoRPA=T DoScal=F NonHer=T
 Would need an additional         23504000000 words for in-memory AO integral storage.
 Making orbital integer symmetry assigments:
    40 initial guesses have been made.
 Convergence on wavefunction:    0.001000000000000
 Davidson Disk Diagonalization:  ConvIn= 1.00D-03 SkipCon=T Conv= 1.00D-03.
 Max sub-space:   200 roots to seek:    40 dimension of matrix:        31944
 Iteration     1 Dimension    40 NMult     0 NNew     40
 CISAX will form    40 AO SS matrices at one time.
 NMat=    40 NSing=    20 JSym2X= 0.
 FoFJK:  IHMeth= 1 ICntrl=       0 DoSepK=T KAlg= 0 I1Cent=   0 FoldK=F
 IRaf=         1 NMat=  80 IRICut=       1 DoRegI=T DoRafI=F ISym2E= 0.
 FoFCou: FMM=F IPFlag=           0 FMFlag=      100000 FMFlg1=           0
         NFxFlg=           0 DoJE=F BraDBF=F KetDBF=F FulRan=T
         wScrn=  0.000000 ICntrl=     500 IOpCl=  0 I1Cent=           0 NGrid=           0
         NMat0=   20 NMatS0=     20 NMatT0=    0 NMatD0=   20 NMtDS0=    0 NMtDT0=    0
 Symmetry not used in FoFCou.
 New state      1 was old state      2
 New state      2 was old state      4
 New state      3 was old state     26
 New state      4 was old state      1
 New state      5 was old state      3
 New state      6 was old state     20
 New state      7 was old state     14
 New state      8 was old state     24
 New state      9 was old state     13
 New state     10 was old state      6
 Excitation Energies [eV] at current iteration:
 Root      1 :     2.967074171790740
 Root      2 :     4.151261232844156
 Root      3 :     4.686018796041834
 Root      4 :     4.741962424845061
 Root      5 :     4.838190881345820
 Root      6 :     4.962363512881802
 Root      7 :     5.143253508719856
 Root      8 :     5.357113778818738
 Root      9 :     5.398599473171276
 Root     10 :     5.775231150899931
 Root     11 :     5.776903615119500
 Root     12 :     6.192556006545709
 Root     13 :     6.195418282057771
 Root     14 :     6.421796828877207
 Root     15 :     6.428671549269733
 Root     16 :     6.450660460481050
 Root     17 :     6.485321752872814
 Root     18 :     6.592881315630534
 Root     19 :     6.684396713153298
 Root     20 :     6.689727692073694
 Root     21 :     6.732370760108963
 Root     22 :     6.752626018554232
 Root     23 :     6.899375002069258
 Root     24 :     6.904697816097311
 Root     25 :     7.032598430664829
 Root     26 :     7.033994095174534
 Root     27 :     7.259885108925872
 Root     28 :     7.306998690380846
 Root     29 :     7.320488183207647
 Root     30 :     7.415158662756013
 Root     31 :     7.423233523192233
 Root     32 :     7.558268441498793
 Root     33 :     7.577280555245221
 Root     34 :     7.660419402409336
 Root     35 :     7.803770217920354
 Root     36 :     7.837085410118468
 Root     37 :     7.959654798710849
 Root     38 :     7.966420565172385
 Root     39 :     8.110261133932026
 Root     40 :     8.121868129089020
 Vector   8 SDiff=1.48D+00 TDiff=8.61D-01 assumed to be triplet.
 Vector  10 SDiff=2.38D+00 TDiff=4.16D-01 assumed to be triplet.
 Vector  18 SDiff=1.57D+00 TDiff=9.26D-01 assumed to be triplet.
 Vector  20 SDiff=2.38D+00 TDiff=3.86D-01 assumed to be triplet.
 Iteration     2 Dimension    60 NMult    40 NNew     20
 CISAX will form    20 AO SS matrices at one time.
 NMat=    20 NSing=     6 JSym2X= 0.
 Root      1 not converged, maximum delta is    0.118282388440226
 Root      2 not converged, maximum delta is    0.105796562004037
 Root      3 not converged, maximum delta is    0.129423143625521
 Root      4 not converged, maximum delta is    0.186781502163297
 New state      5 was old state      6
 Root      5 not converged, maximum delta is    0.219370881659048
 New state      6 was old state      5
 Root      6 not converged, maximum delta is    0.186080800518046
 Root      7 not converged, maximum delta is    0.157491311964457
 New state      8 was old state      9
 Root      8 not converged, maximum delta is    0.119729646864790
 New state      9 was old state     11
 Root      9 not converged, maximum delta is    0.054235699314859
 New state     10 was old state     13
 Root     10 not converged, maximum delta is    0.016033407425190
 Excitation Energies [eV] at current iteration:
 Root      1 :     2.316256459644539   Change is   -0.650817712146200
 Root      2 :     3.789066635583425   Change is   -0.362194597260732
 Root      3 :     4.071997763656362   Change is   -0.614021032385472
 Root      4 :     4.082839616238312   Change is   -0.659122808606749
 Root      5 :     4.398477942423505   Change is   -0.563885570458296
 Root      6 :     4.492464864295696   Change is   -0.345726017050124
 Root      7 :     4.680395424774356   Change is   -0.462858083945500
 Root      8 :     5.110340539019872   Change is   -0.288258934151404
 Root      9 :     5.597764668490711   Change is   -0.179138946628789
 Root     10 :     6.194368316208622   Change is   -0.001049965849149
 Iteration     3 Dimension    80 NMult    60 NNew     20
 CISAX will form    20 AO SS matrices at one time.
 NMat=    20 NSing=    10 JSym2X= 0.
 Root      1 not converged, maximum delta is    0.061402675113111
 Root      2 not converged, maximum delta is    0.052740139049867
 Root      3 not converged, maximum delta is    0.093214772008008
 Root      4 not converged, maximum delta is    0.021237273541063
 Root      5 not converged, maximum delta is    0.035983211996956
 Root      6 not converged, maximum delta is    0.014437084917829
 Root      7 not converged, maximum delta is    0.016295301034418
 Root      8 not converged, maximum delta is    0.044562187028045
 Root      9 not converged, maximum delta is    0.014079160647831
 Root     10 not converged, maximum delta is    0.074226978763717
 Excitation Energies [eV] at current iteration:
 Root      1 :     2.252348411591187   Change is   -0.063908048053352
 Root      2 :     3.772546526901110   Change is   -0.016520108682314
 Root      3 :     3.925557579278408   Change is   -0.146440184377953
 Root      4 :     4.029535328222988   Change is   -0.053304288015324
 Root      5 :     4.358142809139749   Change is   -0.040335133283757
 Root      6 :     4.459723995914331   Change is   -0.032740868381365
 Root      7 :     4.662679470319525   Change is   -0.017715954454830
 Root      8 :     4.984082200271410   Change is   -0.126258338748463
 Root      9 :     5.575695069489938   Change is   -0.022069599000773
 Root     10 :     6.025324889804892   Change is   -0.169043426403730
 Iteration     4 Dimension   100 NMult    80 NNew     20
 CISAX will form    20 AO SS matrices at one time.
 NMat=    20 NSing=    10 JSym2X= 0.
 Root      1 not converged, maximum delta is    0.015641937606753
 Root      2 not converged, maximum delta is    0.025728767084553
 Root      3 not converged, maximum delta is    0.042334991144937
 Root      4 not converged, maximum delta is    0.010494507918363
 Root      5 not converged, maximum delta is    0.016231232493429
 Root      6 not converged, maximum delta is    0.004973506715321
 Root      7 not converged, maximum delta is    0.128159321015488
 Root      8 not converged, maximum delta is    0.005415886034154
 Root      9 not converged, maximum delta is    0.010644669220933
 Root     10 not converged, maximum delta is    0.424768841330605
 Excitation Energies [eV] at current iteration:
 Root      1 :     2.245356965546756   Change is   -0.006991446044431
 Root      2 :     3.769079171951806   Change is   -0.003467354949305
 Root      3 :     3.896986599356300   Change is   -0.028570979922108
 Root      4 :     4.021204042591085   Change is   -0.008331285631902
 Root      5 :     4.353751875144520   Change is   -0.004390933995229
 Root      6 :     4.456809042806669   Change is   -0.002914953107661
 Root      7 :     4.654481408858849   Change is   -0.008198061460676
 Root      8 :     4.976663873966001   Change is   -0.007418326305409
 Root      9 :     5.572362660119763   Change is   -0.003332409370174
 Root     10 :     5.827108101308720   Change is   -0.198216788496172
 Iteration     5 Dimension   120 NMult   100 NNew     20
 CISAX will form    20 AO SS matrices at one time.
 NMat=    20 NSing=    10 JSym2X= 0.
 Root      1 not converged, maximum delta is    0.001012629341203
 Root      2 not converged, maximum delta is    0.003322522926822
 Root      3 not converged, maximum delta is    0.008847337557371
 Root      4 not converged, maximum delta is    0.002302502622098
 Root      5 not converged, maximum delta is    0.005503003682263
 Root      6 has converged.
 Root      7 not converged, maximum delta is    0.255129170599890
 Root      8 not converged, maximum delta is    0.001278909840682
 Root      9 not converged, maximum delta is    0.004710580188397
 Root     10 not converged, maximum delta is    0.044913356031173
 Excitation Energies [eV] at current iteration:
 Root      1 :     2.245052222630209   Change is   -0.000304742916547
 Root      2 :     3.768724140781391   Change is   -0.000355031170415
 Root      3 :     3.894356228601874   Change is   -0.002630370754426
 Root      4 :     4.020156311238859   Change is   -0.001047731352227
 Root      5 :     4.353260560283847   Change is   -0.000491314860673
 Root      6 :     4.456593527040769   Change is   -0.000215515765900
 Root      7 :     4.626461992185445   Change is   -0.028019416673404
 Root      8 :     4.976188532571537   Change is   -0.000475341394464
 Root      9 :     5.571849575910764   Change is   -0.000513084208999
 Root     10 :     5.710432453187908   Change is   -0.116675648120813
 Iteration     6 Dimension   138 NMult   120 NNew     18
 CISAX will form    18 AO SS matrices at one time.
 NMat=    18 NSing=     8 JSym2X= 0.
 Root      1 has converged.
 Root      2 has converged.
 Root      3 not converged, maximum delta is    0.002125318628183
 Root      4 not converged, maximum delta is    0.001230836997180
 Root      5 has converged.
 Root      6 has converged.
 Root      7 not converged, maximum delta is    0.033466272527949
 Root      8 has converged.
 Root      9 not converged, maximum delta is    0.001337568896535
 Root     10 not converged, maximum delta is    0.008651149967844
 Excitation Energies [eV] at current iteration:
 Root      1 :     2.245036567066902   Change is   -0.000015655563307
 Root      2 :     3.768698799694219   Change is   -0.000025341087171
 Root      3 :     3.894106765408426   Change is   -0.000249463193448
 Root      4 :     4.020072980512761   Change is   -0.000083330726098
 Root      5 :     4.353227127815203   Change is   -0.000033432468643
 Root      6 :     4.456588207178974   Change is   -0.000005319861794
 Root      7 :     4.621315248253823   Change is   -0.005146743931621
 Root      8 :     4.976155466463545   Change is   -0.000033066107992
 Root      9 :     5.571764847312001   Change is   -0.000084728598763
 Root     10 :     5.698069293549323   Change is   -0.012363159638584
 Iteration     7 Dimension   148 NMult   138 NNew     10
 CISAX will form    10 AO SS matrices at one time.
 NMat=    10 NSing=     6 JSym2X= 0.
 Root      1 has converged.
 Root      2 has converged.
 Root      3 has converged.
 Root      4 has converged.
 Root      5 has converged.
 Root      6 has converged.
 Root      7 not converged, maximum delta is    0.002313702331477
 Root      8 has converged.
 Root      9 has converged.
 Root     10 not converged, maximum delta is    0.002787019010051
 Excitation Energies [eV] at current iteration:
 Root      1 :     2.245036058411390   Change is   -0.000000508655512
 Root      2 :     3.768697649953119   Change is   -0.000001149741100
 Root      3 :     3.894093265076421   Change is   -0.000013500332006
 Root      4 :     4.020067266935111   Change is   -0.000005713577649
 Root      5 :     4.353225955231289   Change is   -0.000001172583914
 Root      6 :     4.456586710345604   Change is   -0.000001496833371
 Root      7 :     4.620924060729950   Change is   -0.000391187523873
 Root      8 :     4.976154782143664   Change is   -0.000000684319881
 Root      9 :     5.571757338366228   Change is   -0.000007508945773
 Root     10 :     5.696911030352783   Change is   -0.001158263196540
 Iteration     8 Dimension   152 NMult   148 NNew      4
 CISAX will form     4 AO SS matrices at one time.
 NMat=     4 NSing=     2 JSym2X= 0.
 Root      1 has converged.
 Root      2 has converged.
 Root      3 has converged.
 Root      4 has converged.
 Root      5 has converged.
 Root      6 has converged.
 Root      7 has converged.
 Root      8 has converged.
 Root      9 has converged.
 Root     10 not converged, maximum delta is    0.001528791017543
 Excitation Energies [eV] at current iteration:
 Root      1 :     2.245036014103060   Change is   -0.000000044308330
 Root      2 :     3.768697648423466   Change is   -0.000000001529653
 Root      3 :     3.894093209531758   Change is   -0.000000055544663
 Root      4 :     4.020067260298479   Change is   -0.000000006636633
 Root      5 :     4.353225905432742   Change is   -0.000000049798547
 Root      6 :     4.456586636015893   Change is   -0.000000074329711
 Root      7 :     4.620897857873885   Change is   -0.000026202856065
 Root      8 :     4.976154729547082   Change is   -0.000000052596582
 Root      9 :     5.571757301289971   Change is   -0.000000037076257
 Root     10 :     5.696738539330327   Change is   -0.000172491022456
 Iteration     9 Dimension   154 NMult   152 NNew      2
 CISAX will form     2 AO SS matrices at one time.
 NMat=     2 NSing=     2 JSym2X= 0.
 Root      1 has converged.
 Root      2 has converged.
 Root      3 has converged.
 Root      4 has converged.
 Root      5 has converged.
 Root      6 has converged.
 Root      7 has converged.
 Root      8 has converged.
 Root      9 has converged.
 Root     10 has converged.
 Excitation Energies [eV] at current iteration:
 Root      1 :     2.245036014102913   Change is   -0.000000000000147
 Root      2 :     3.768697648423379   Change is   -0.000000000000087
 Root      3 :     3.894093209531800   Change is    0.000000000000042
 Root      4 :     4.020067257814034   Change is   -0.000000002484445
 Root      5 :     4.353225905432723   Change is   -0.000000000000019
 Root      6 :     4.456586610082616   Change is   -0.000000025933276
 Root      7 :     4.620897857873885   Change is    0.000000000000000
 Root      8 :     4.976154677975567   Change is   -0.000000051571515
 Root      9 :     5.571757263148895   Change is   -0.000000038141077
 Root     10 :     5.696713399088359   Change is   -0.000025140241968
 Convergence achieved on expansion vectors.
 ***********************************************************************
 Excited states from <AA,BB:AA,BB> singles matrix:
 ***********************************************************************
 
 1PDM for each excited state written to RWF  633
 Ground to excited state transition densities written to RWF  633
 Ground to excited state transition electric dipole moments (Au):
       state          X           Y           Z        Dip. S.      Osc.
         1         0.0000      0.0000      0.0000      0.0000      0.0000
         2         0.0000      0.0000      0.0000      0.0000      0.0000
         3         0.0000      0.0000      0.0000      0.0000      0.0000
         4        -2.6597      0.1854     -0.5513      7.4120      0.7300
         5         0.0000      0.0000      0.0000      0.0000      0.0000
         6         0.2322     -0.0513      0.2289      0.1089      0.0119
         7         0.0000      0.0000      0.0000      0.0000      0.0000
         8         0.0119      0.0301     -0.1560      0.0254      0.0031
         9         0.0117     -0.0554      0.0510      0.0058      0.0008
        10         0.2503      0.0012     -0.0786      0.0688      0.0096
 Ground to excited state transition velocity dipole moments (Au):
       state          X           Y           Z        Dip. S.      Osc.
         1         0.0000      0.0000      0.0000      0.0000      0.0000
         2         0.0000      0.0000      0.0000      0.0000      0.0000
         3         0.0000      0.0000      0.0000      0.0000      0.0000
         4         0.3939     -0.0272      0.0819      0.1626      0.7339
         5         0.0000      0.0000      0.0000      0.0000      0.0000
         6        -0.0381      0.0087     -0.0384      0.0030      0.0122
         7         0.0000      0.0000      0.0000      0.0000      0.0000
         8        -0.0024     -0.0059      0.0302      0.0010      0.0035
         9        -0.0040      0.0116     -0.0109      0.0003      0.0009
        10        -0.0532     -0.0004      0.0181      0.0032      0.0101
 Ground to excited state transition magnetic dipole moments (Au):
       state          X           Y           Z
         1         0.0000      0.0000      0.0000
         2         0.0000      0.0000      0.0000
         3         0.0000      0.0000      0.0000
         4        -0.0448     -0.3347      0.1504
         5         0.0000      0.0000      0.0000
         6        -0.0091     -0.8249     -0.1454
         7         0.0000      0.0000      0.0000
         8        -0.0091     -0.1990      0.0050
         9         0.0704     -0.0932     -0.3540
        10        -0.0403     -2.3257     -0.2828
 Ground to excited state transition velocity quadrupole moments (Au):
       state          XX          YY          ZZ          XY          XZ          YZ
         1         0.0000      0.0000      0.0000      0.0000      0.0000      0.0000
         2         0.0000      0.0000      0.0000      0.0000      0.0000      0.0000
         3         0.0000      0.0000      0.0000      0.0000      0.0000      0.0000
         4        -1.5507     -0.0276      0.0344      0.0857      0.0478     -0.0568
         5         0.0000      0.0000      0.0000      0.0000      0.0000      0.0000
         6        -0.1560     -0.0089      0.2923     -0.0673      0.4569     -0.0272
         7         0.0000      0.0000      0.0000      0.0000      0.0000      0.0000
         8         0.1001      0.0061     -0.0768      0.0309     -0.1256      0.0005
         9        -0.1676     -0.0230      0.0103     -0.2284      0.0119     -0.0507
        10        -0.8048      0.0066      0.7185     -0.0675      1.0099     -0.1160
 <0|del|b> * <b|rxdel|0> + <0|del|b> * <b|delr+rdel|0>
 Rotatory Strengths (R) in cgs (10**-40 erg-esu-cm/Gauss)
       state          XX          YY          ZZ    R(velocity)    E-M Angle
         1         0.0000      0.0000      0.0000      0.0000       90.00
         2         0.0000      0.0000      0.0000      0.0000       90.00
         3         0.0000      0.0000      0.0000      0.0000       90.00
         4        71.1632    -83.1517     29.9345      5.9820       88.56
         5         0.0000      0.0000      0.0000      0.0000       90.00
         6        -6.4202      9.4629     -8.3935     -1.7836       91.55
         7         0.0000      0.0000      0.0000      0.0000       90.00
         8         2.9329     -1.4687      3.7436      1.7359       77.34
         9         8.8862      2.2343     -2.4787      2.8806       65.93
        10        -8.5712      7.4723     -5.9691     -2.3560       90.91
 1/2[<0|r|b>*<b|rxdel|0> + (<0|rxdel|b>*<b|r|0>)*]
 Rotatory Strengths (R) in cgs (10**-40 erg-esu-cm/Gauss)
       state          XX          YY          ZZ     R(length)
         1         0.0000      0.0000      0.0000      0.0000
         2         0.0000      0.0000      0.0000      0.0000
         3         0.0000      0.0000      0.0000      0.0000
         4       -84.3235     43.8826     58.6354      6.0649
         5         0.0000      0.0000      0.0000      0.0000
         6         1.4932    -29.9051     23.5297     -1.6274
         7         0.0000      0.0000      0.0000      0.0000
         8         0.0769      4.2357      0.5560      1.6229
         9        -0.5843     -3.6509     12.7770      2.8473
        10         7.1288      1.9319    -15.7092     -2.2162
  1/2[<0|del|b>*<b|r|0> + (<0|r|b>*<b|del|0>)*] (Au)
       state          X           Y           Z        Dip. S.   Osc.(frdel)
         1         0.0000      0.0000      0.0000      0.0000      0.0000
         2         0.0000      0.0000      0.0000      0.0000      0.0000
         3         0.0000      0.0000      0.0000      0.0000      0.0000
         4        -1.0477     -0.0050     -0.0452      1.0979      0.7319
         5         0.0000      0.0000      0.0000      0.0000      0.0000
         6        -0.0088     -0.0004     -0.0088      0.0181      0.0121
         7         0.0000      0.0000      0.0000      0.0000      0.0000
         8         0.0000     -0.0002     -0.0047      0.0049      0.0033
         9         0.0000     -0.0006     -0.0006      0.0012      0.0008
        10        -0.0133      0.0000     -0.0014      0.0147      0.0098

 Excitation energies and oscillator strengths:
 
 Excited state symmetry could not be determined.
 Excited State   1:      Triplet-?Sym    2.2450 eV  552.26 nm  f=0.0000  <S**2>=2.000
      60 -> 63         0.11204
      61 -> 62         0.67442
      61 <- 62         0.14240
 This state for optimization and/or second-order correction.
 Total Energy, E(TD-HF/TD-KS) =  -695.587279414    
 Copying the excited state density for this state as the 1-particle RhoCI density.
 
 Excited state symmetry could not be determined.
 Excited State   2:      Triplet-?Sym    3.7687 eV  328.98 nm  f=0.0000  <S**2>=2.000
      59 -> 62        -0.10552
      61 -> 63         0.61818
      61 -> 68        -0.14467
 
 Excited state symmetry could not be determined.
 Excited State   3:      Triplet-?Sym    3.8941 eV  318.39 nm  f=0.0000  <S**2>=2.000
      56 -> 62        -0.11505
      58 -> 62         0.34187
      59 -> 62         0.21833
      59 -> 63         0.16917
      60 -> 63         0.12330
      60 -> 67        -0.12702
      60 -> 68         0.16459
      61 -> 63         0.21842
      61 -> 73         0.19320
      61 -> 74         0.23302
      61 -> 75         0.13206
      61 -> 77         0.10080
 
 Excited state symmetry could not be determined.
 Excited State   4:      Singlet-?Sym    4.0201 eV  308.41 nm  f=0.7300  <S**2>=0.000
      61 -> 62         0.69296
 
 Excited state symmetry could not be determined.
 Excited State   5:      Triplet-?Sym    4.3532 eV  284.81 nm  f=0.0000  <S**2>=2.000
      58 -> 63         0.21108
      59 -> 63         0.11868
      60 -> 62         0.28982
      61 -> 67        -0.33048
      61 -> 68         0.41438
 
 Excited state symmetry could not be determined.
 Excited State   6:      Singlet-?Sym    4.4566 eV  278.20 nm  f=0.0119  <S**2>=0.000
      59 -> 62         0.11444
      60 -> 62        -0.20058
      61 -> 63         0.63905
 
 Excited state symmetry could not be determined.
 Excited State   7:      Triplet-?Sym    4.6209 eV  268.31 nm  f=0.0000  <S**2>=2.000
      58 -> 68         0.13285
      59 -> 63         0.24640
      59 -> 67         0.15826
      59 -> 68        -0.22255
      60 -> 62        -0.30978
      60 -> 63        -0.37856
      60 -> 68        -0.12221
      61 -> 62         0.15602
 
 Excited state symmetry could not be determined.
 Excited State   8:      Singlet-?Sym    4.9762 eV  249.16 nm  f=0.0031  <S**2>=0.000
      58 -> 62         0.13728
      58 -> 63         0.15816
      59 -> 62        -0.29014
      60 -> 62        -0.30034
      61 -> 67        -0.29781
      61 -> 68         0.37885
 
 Excited state symmetry could not be determined.
 Excited State   9:      Singlet-?Sym    5.5718 eV  222.52 nm  f=0.0008  <S**2>=0.000
      61 -> 64         0.56947
      61 -> 65         0.28327
      61 -> 69         0.17031
      61 -> 77        -0.10106
 
 Excited state symmetry could not be determined.
 Excited State  10:      Singlet-?Sym    5.6967 eV  217.64 nm  f=0.0096  <S**2>=0.000
      59 -> 62        -0.27873
      60 -> 62         0.54815
      61 -> 63         0.26521
 SavETr:  write IOETrn=   770 NScale= 10 NData=  16 NLR=1 NState=   10 LETran=     190.
 Leave Link  914 at Mon Oct  2 19:44:46 2017, MaxMem=  1879048192 cpu:      7308.2
 (Enter /share/apps/gaussian/g09_D01/g09/l601.exe)
 Copying SCF densities to generalized density rwf, IOpCl= 0 IROHF=0.

 **********************************************************************

            Population analysis using the SCF density.

 **********************************************************************

 Alpha  occ. eigenvalues --  -19.28283 -10.35642 -10.34380 -10.30458 -10.29886
 Alpha  occ. eigenvalues --  -10.29725 -10.29364 -10.29027 -10.28992 -10.28812
 Alpha  occ. eigenvalues --  -10.28750 -10.28709 -10.28656 -10.28633 -10.28573
 Alpha  occ. eigenvalues --  -10.28474 -10.27673  -1.18196  -0.96886  -0.94590
 Alpha  occ. eigenvalues --   -0.91366  -0.87966  -0.86153  -0.84813  -0.84077
 Alpha  occ. eigenvalues --   -0.80202  -0.75738  -0.72377  -0.71045  -0.69157
 Alpha  occ. eigenvalues --   -0.68067  -0.66956  -0.63590  -0.61120  -0.59005
 Alpha  occ. eigenvalues --   -0.57730  -0.56550  -0.55390  -0.53275  -0.53099
 Alpha  occ. eigenvalues --   -0.52730  -0.52186  -0.50779  -0.50139  -0.49822
 Alpha  occ. eigenvalues --   -0.48415  -0.47475  -0.46896  -0.46462  -0.44327
 Alpha  occ. eigenvalues --   -0.44241  -0.43562  -0.43173  -0.42187  -0.41564
 Alpha  occ. eigenvalues --   -0.40612  -0.39671  -0.34582  -0.34003  -0.33187
 Alpha  occ. eigenvalues --   -0.26247
 Alpha virt. eigenvalues --    0.01210   0.04752   0.05646   0.06545   0.07005
 Alpha virt. eigenvalues --    0.07350   0.07518   0.07645   0.08064   0.08964
 Alpha virt. eigenvalues --    0.09568   0.09759   0.10423   0.10694   0.11061
 Alpha virt. eigenvalues --    0.11311   0.11674   0.11939   0.12206   0.13126
 Alpha virt. eigenvalues --    0.13421   0.13840   0.14474   0.14691   0.14986
 Alpha virt. eigenvalues --    0.16127   0.16300   0.16631   0.16875   0.17326
 Alpha virt. eigenvalues --    0.18367   0.18817   0.18952   0.19501   0.19627
 Alpha virt. eigenvalues --    0.19954   0.20637   0.20954   0.21376   0.21514
 Alpha virt. eigenvalues --    0.22043   0.22113   0.22809   0.22971   0.23361
 Alpha virt. eigenvalues --    0.23422   0.24168   0.24334   0.24498   0.24828
 Alpha virt. eigenvalues --    0.25053   0.25559   0.25654   0.26105   0.26301
 Alpha virt. eigenvalues --    0.26529   0.26843   0.27049   0.27185   0.27561
 Alpha virt. eigenvalues --    0.28031   0.28544   0.28702   0.28805   0.29557
 Alpha virt. eigenvalues --    0.30078   0.30331   0.30667   0.31355   0.31639
 Alpha virt. eigenvalues --    0.31911   0.32310   0.32818   0.33558   0.33702
 Alpha virt. eigenvalues --    0.33854   0.33981   0.34240   0.34844   0.35617
 Alpha virt. eigenvalues --    0.35674   0.36498   0.36921   0.37180   0.38223
 Alpha virt. eigenvalues --    0.38942   0.39446   0.39756   0.40260   0.40636
 Alpha virt. eigenvalues --    0.41238   0.41296   0.42236   0.43235   0.43822
 Alpha virt. eigenvalues --    0.44874   0.45625   0.46673   0.47838   0.49622
 Alpha virt. eigenvalues --    0.49833   0.49923   0.51560   0.52579   0.53502
 Alpha virt. eigenvalues --    0.54920   0.56138   0.57530   0.58471   0.58892
 Alpha virt. eigenvalues --    0.59393   0.60360   0.61161   0.61352   0.61844
 Alpha virt. eigenvalues --    0.62391   0.63551   0.63881   0.64167   0.64274
 Alpha virt. eigenvalues --    0.65022   0.66459   0.67145   0.67798   0.68083
 Alpha virt. eigenvalues --    0.68358   0.69458   0.70690   0.70862   0.71471
 Alpha virt. eigenvalues --    0.72019   0.72373   0.72510   0.73154   0.73594
 Alpha virt. eigenvalues --    0.74318   0.75661   0.76155   0.76407   0.76874
 Alpha virt. eigenvalues --    0.77384   0.77578   0.78496   0.79031   0.79386
 Alpha virt. eigenvalues --    0.80519   0.81235   0.81421   0.82111   0.82649
 Alpha virt. eigenvalues --    0.82834   0.83330   0.84160   0.85003   0.85531
 Alpha virt. eigenvalues --    0.87477   0.87545   0.89324   0.90228   0.92317
 Alpha virt. eigenvalues --    0.92566   0.93342   0.94360   0.95043   0.95622
 Alpha virt. eigenvalues --    0.97328   0.97877   0.98397   0.99957   1.01467
 Alpha virt. eigenvalues --    1.01756   1.02919   1.03334   1.04101   1.07438
 Alpha virt. eigenvalues --    1.07549   1.08673   1.08940   1.09477   1.10634
 Alpha virt. eigenvalues --    1.11605   1.12058   1.13887   1.15442   1.17817
 Alpha virt. eigenvalues --    1.18828   1.19148   1.20507   1.20791   1.21601
 Alpha virt. eigenvalues --    1.24275   1.26272   1.28024   1.28324   1.29030
 Alpha virt. eigenvalues --    1.29311   1.31363   1.32408   1.33611   1.33963
 Alpha virt. eigenvalues --    1.38639   1.39801   1.43154   1.44120   1.46896
 Alpha virt. eigenvalues --    1.49015   1.53574   1.55687   1.57884   1.58835
 Alpha virt. eigenvalues --    1.60120   1.61082   1.61616   1.62224   1.63023
 Alpha virt. eigenvalues --    1.64388   1.65656   1.66595   1.66646   1.70126
 Alpha virt. eigenvalues --    1.71547   1.73440   1.74737   1.77621   1.78865
 Alpha virt. eigenvalues --    1.79748   1.80344   1.81409   1.83657   1.85557
 Alpha virt. eigenvalues --    1.87507   1.87782   1.88101   1.90024   1.90618
 Alpha virt. eigenvalues --    1.91703   1.92649   1.93923   1.94790   1.95093
 Alpha virt. eigenvalues --    1.96974   1.97635   1.98588   2.00853   2.02138
 Alpha virt. eigenvalues --    2.02346   2.04097   2.04170   2.04477   2.07188
 Alpha virt. eigenvalues --    2.08980   2.13058   2.15716   2.18766   2.23747
 Alpha virt. eigenvalues --    2.26720   2.27186   2.27873   2.30219   2.36093
 Alpha virt. eigenvalues --    2.36536   2.37082   2.40018   2.42493   2.44892
 Alpha virt. eigenvalues --    2.46715   2.47113   2.47367   2.48691   2.52381
 Alpha virt. eigenvalues --    2.57603   2.58119   2.59040   2.59184   2.60518
 Alpha virt. eigenvalues --    2.63068   2.63542   2.66342   2.68630   2.70055
 Alpha virt. eigenvalues --    2.71886   2.74258   2.74886   2.75654   2.77518
 Alpha virt. eigenvalues --    2.81630   2.85029   2.85370   2.86161   2.89825
 Alpha virt. eigenvalues --    2.90935   2.91982   2.93928   2.97639   2.98417
 Alpha virt. eigenvalues --    3.02176   3.04480   3.06499   3.07786   3.09488
 Alpha virt. eigenvalues --    3.10033   3.10203   3.17064   3.18287   3.18522
 Alpha virt. eigenvalues --    3.20826   3.21667   3.24586   3.26084   3.31268
 Alpha virt. eigenvalues --    3.31950   3.33302   3.33382   3.33826   3.37594
 Alpha virt. eigenvalues --    3.39455   3.41082   3.43016   3.44396   3.46752
 Alpha virt. eigenvalues --    3.47090   3.48844   3.49767   3.50440   3.53644
 Alpha virt. eigenvalues --    3.59978   3.69091   3.72208   3.73813   3.74984
 Alpha virt. eigenvalues --    3.78116   3.78508   3.92003   3.97131   4.06511
 Alpha virt. eigenvalues --    4.10893   4.12573   4.17524   4.23240   4.28391
 Alpha virt. eigenvalues --    4.66546   4.83425   4.89922   5.16930   5.49329
 Alpha virt. eigenvalues --    5.90067  23.43096  23.59021  23.64400  23.75296
 Alpha virt. eigenvalues --   23.82054  23.87850  23.88303  23.90912  23.97936
 Alpha virt. eigenvalues --   24.06437  24.08201  24.15700  24.22166  24.23979
 Alpha virt. eigenvalues --   24.27757  24.29236  50.10537
          Condensed to atoms (all electrons):
               1          2          3          4          5          6
     1  C    7.747212  -1.959020   1.428010  -0.932491   1.145333  -1.546424
     2  C   -1.959020  17.362297  -7.670312   1.499503  -1.197344  -1.353599
     3  C    1.428010  -7.670312  14.091646  -0.852707   1.989142  -1.679809
     4  C   -0.932491   1.499503  -0.852707   6.103669   0.068629   0.530673
     5  C    1.145333  -1.197344   1.989142   0.068629  11.021579  -4.720467
     6  C   -1.546424  -1.353599  -1.679809   0.530673  -4.720467  14.956402
     7  H    0.027508   0.380530  -0.152733  -0.014250  -0.010366  -0.017422
     8  H    0.012301   0.018314   0.274204   0.035048  -0.026542   0.009031
     9  H    0.060495  -0.121232   0.107118   0.264545   0.082390  -0.067694
    10  H   -0.005090   0.035769  -0.048460   0.070009   0.294833  -0.013335
    11  H    0.034295  -0.040138   0.002957  -0.031349  -0.112625   0.313309
    12  C    1.793216  -0.679638   0.190914  -0.347265  -0.197853  -0.701232
    13  C   -0.415655  -2.578776  -0.200134  -0.017515  -1.251141   3.315867
    14  C   -0.639253  -0.423648   0.243864  -0.096570   0.416176  -0.178215
    15  C   -0.674659  -0.083618  -0.116800   0.009688  -0.343830  -0.093915
    16  C   -0.514520  -0.058005   0.612777  -0.073232   0.004747  -0.597144
    17  C   -0.519007   2.904617  -1.430251   0.097475  -0.483284  -2.030855
    18  H    0.078887   0.024613   0.007561  -0.001893   0.055145   0.002609
    19  H   -0.004780  -0.000372   0.000115   0.000101  -0.000756   0.006165
    20  O   -0.002957  -0.000089   0.000619  -0.000060   0.000417  -0.001822
    21  H    0.006673   0.007303  -0.001259   0.000288  -0.000180   0.001243
    22  H    0.055520   0.001461   0.053500  -0.005020   0.010987   0.012780
    23  C   -0.013596  -0.000962   0.001890  -0.000199  -0.002580  -0.011246
    24  H   -0.000098   0.000018   0.000002   0.000000   0.000007   0.000088
    25  H    0.000985  -0.001226  -0.000126   0.000005  -0.000072  -0.000422
    26  C    0.012704  -0.003677  -0.001269   0.000136  -0.001655  -0.001929
    27  C   -0.001352   0.000268   0.000052  -0.000017   0.000116  -0.000049
    28  H   -0.000784   0.001215   0.000236  -0.000011   0.000060   0.000098
    29  H    0.000280  -0.000184  -0.000017   0.000001  -0.000008  -0.000032
    30  C   -0.000186  -0.000349  -0.000127   0.000002  -0.000030  -0.000179
    31  H    0.000006   0.000005   0.000000   0.000000   0.000000   0.000004
    32  H    0.000044  -0.000106  -0.000009   0.000000  -0.000002  -0.000013
    33  H    0.000000   0.000001   0.000000   0.000000   0.000000   0.000000
    34  H    0.000001   0.000011   0.000002   0.000000   0.000000   0.000004
    35  H    0.000004  -0.000003   0.000000   0.000000   0.000000   0.000000
               7          8          9         10         11         12
     1  C    0.027508   0.012301   0.060495  -0.005090   0.034295   1.793216
     2  C    0.380530   0.018314  -0.121232   0.035769  -0.040138  -0.679638
     3  C   -0.152733   0.274204   0.107118  -0.048460   0.002957   0.190914
     4  C   -0.014250   0.035048   0.264545   0.070009  -0.031349  -0.347265
     5  C   -0.010366  -0.026542   0.082390   0.294833  -0.112625  -0.197853
     6  C   -0.017422   0.009031  -0.067694  -0.013335   0.313309  -0.701232
     7  H    0.459207  -0.005132  -0.000256   0.000071  -0.000084   0.043498
     8  H   -0.005132   0.443458  -0.004755  -0.000197   0.000068  -0.002526
     9  H   -0.000256  -0.004755   0.439303  -0.004614  -0.000232   0.002369
    10  H    0.000071  -0.000197  -0.004614   0.442185  -0.005382  -0.007175
    11  H   -0.000084   0.000068  -0.000232  -0.005382   0.457149   0.056726
    12  C    0.043498  -0.002526   0.002369  -0.007175   0.056726   8.710795
    13  C    0.011055  -0.000337   0.001603   0.003540   0.046279  -1.144243
    14  C    0.001905  -0.000411   0.000454  -0.000712   0.010770   1.090261
    15  C   -0.003769   0.000277  -0.000025   0.000116   0.002430  -1.956926
    16  C   -0.014326   0.000346   0.000297  -0.000543   0.003772  -0.882167
    17  C    0.048952   0.008489   0.000293  -0.000034   0.016484  -0.810166
    18  H   -0.000066   0.000000  -0.000001  -0.000019   0.003533   0.098075
    19  H    0.000001   0.000000   0.000000   0.000000  -0.000015   0.017005
    20  O   -0.000008   0.000000   0.000000   0.000000   0.000001  -0.069889
    21  H   -0.000020   0.000000   0.000000   0.000000   0.000001   0.044438
    22  H    0.003815  -0.000033  -0.000001   0.000000  -0.000070   0.086080
    23  C   -0.000113   0.000000   0.000000  -0.000001   0.000054  -0.139739
    24  H    0.000000   0.000000   0.000000   0.000000   0.000000   0.004515
    25  H    0.000000   0.000000   0.000000   0.000000   0.000000  -0.020916
    26  C    0.000050   0.000000   0.000000   0.000000   0.000009  -0.085598
    27  C   -0.000002   0.000000   0.000000   0.000000   0.000001  -0.006304
    28  H   -0.000001   0.000000   0.000000   0.000000   0.000000   0.006849
    29  H    0.000000   0.000000   0.000000   0.000000   0.000000  -0.003196
    30  C    0.000001   0.000000   0.000000   0.000000   0.000000  -0.006917
    31  H    0.000000   0.000000   0.000000   0.000000   0.000000   0.000517
    32  H    0.000000   0.000000   0.000000   0.000000   0.000000  -0.001637
    33  H    0.000000   0.000000   0.000000   0.000000   0.000000   0.000010
    34  H    0.000000   0.000000   0.000000   0.000000   0.000000   0.000263
    35  H    0.000000   0.000000   0.000000   0.000000   0.000000  -0.000073
              13         14         15         16         17         18
     1  C   -0.415655  -0.639253  -0.674659  -0.514520  -0.519007   0.078887
     2  C   -2.578776  -0.423648  -0.083618  -0.058005   2.904617   0.024613
     3  C   -0.200134   0.243864  -0.116800   0.612777  -1.430251   0.007561
     4  C   -0.017515  -0.096570   0.009688  -0.073232   0.097475  -0.001893
     5  C   -1.251141   0.416176  -0.343830   0.004747  -0.483284   0.055145
     6  C    3.315867  -0.178215  -0.093915  -0.597144  -2.030855   0.002609
     7  H    0.011055   0.001905  -0.003769  -0.014326   0.048952  -0.000066
     8  H   -0.000337  -0.000411   0.000277   0.000346   0.008489   0.000000
     9  H    0.001603   0.000454  -0.000025   0.000297   0.000293  -0.000001
    10  H    0.003540  -0.000712   0.000116  -0.000543  -0.000034  -0.000019
    11  H    0.046279   0.010770   0.002430   0.003772   0.016484   0.003533
    12  C   -1.144243   1.090261  -1.956926  -0.882167  -0.810166   0.098075
    13  C   11.021602  -0.688809   0.003920  -0.755438  -1.018110   0.239309
    14  C   -0.688809  11.534071  -0.694224  -2.091630  -1.712441  -0.068884
    15  C    0.003920  -0.694224  10.479817   0.238035  -0.435394  -0.086185
    16  C   -0.755438  -2.091630   0.238035   8.985377   0.883810  -0.010747
    17  C   -1.018110  -1.712441  -0.435394   0.883810  10.785931  -0.032981
    18  H    0.239309  -0.068884  -0.086185  -0.010747  -0.032981   0.452101
    19  H   -0.050159   0.372804   0.026350  -0.009865  -0.015726  -0.004816
    20  O   -0.089555  -0.497466   0.523746   0.066630   0.016772  -0.001137
    21  H   -0.003997  -0.025980  -0.056636   0.357513   0.004744   0.000070
    22  H   -0.030597   0.006001  -0.041420  -0.062777   0.218020  -0.000092
    23  C   -0.036316  -0.128176   0.039041  -0.096445  -0.025890  -0.000588
    24  H    0.001828   0.028688   0.055747  -0.035789  -0.005060  -0.000001
    25  H   -0.007237  -0.097249  -0.210862   0.223466   0.059783  -0.000003
    26  C    0.058979  -0.002395  -0.187541   0.112592   0.049145  -0.000479
    27  C    0.010449   0.069711   0.042925  -0.105937  -0.039344  -0.000008
    28  H   -0.000535   0.030497   0.023733  -0.041638  -0.015329  -0.000001
    29  H   -0.003417  -0.040965  -0.050067   0.066934   0.011065   0.000000
    30  C    0.002318   0.017783   0.002446  -0.022446  -0.012906  -0.000003
    31  H    0.000122   0.001554   0.005476  -0.002429   0.000755   0.000000
    32  H   -0.000199  -0.005474  -0.021877   0.018361   0.003889   0.000000
    33  H   -0.000010  -0.000151  -0.000038   0.000269   0.000079   0.000000
    34  H   -0.000033   0.000024  -0.002733  -0.000252   0.000578   0.000000
    35  H    0.000007  -0.000355  -0.000036   0.001450   0.000135   0.000000
              19         20         21         22         23         24
     1  C   -0.004780  -0.002957   0.006673   0.055520  -0.013596  -0.000098
     2  C   -0.000372  -0.000089   0.007303   0.001461  -0.000962   0.000018
     3  C    0.000115   0.000619  -0.001259   0.053500   0.001890   0.000002
     4  C    0.000101  -0.000060   0.000288  -0.005020  -0.000199   0.000000
     5  C   -0.000756   0.000417  -0.000180   0.010987  -0.002580   0.000007
     6  C    0.006165  -0.001822   0.001243   0.012780  -0.011246   0.000088
     7  H    0.000001  -0.000008  -0.000020   0.003815  -0.000113   0.000000
     8  H    0.000000   0.000000   0.000000  -0.000033   0.000000   0.000000
     9  H    0.000000   0.000000   0.000000  -0.000001   0.000000   0.000000
    10  H    0.000000   0.000000   0.000000   0.000000  -0.000001   0.000000
    11  H   -0.000015   0.000001   0.000001  -0.000070   0.000054   0.000000
    12  C    0.017005  -0.069889   0.044438   0.086080  -0.139739   0.004515
    13  C   -0.050159  -0.089555  -0.003997  -0.030597  -0.036316   0.001828
    14  C    0.372804  -0.497466  -0.025980   0.006001  -0.128176   0.028688
    15  C    0.026350   0.523746  -0.056636  -0.041420   0.039041   0.055747
    16  C   -0.009865   0.066630   0.357513  -0.062777  -0.096445  -0.035789
    17  C   -0.015726   0.016772   0.004744   0.218020  -0.025890  -0.005060
    18  H   -0.004816  -0.001137   0.000070  -0.000092  -0.000588  -0.000001
    19  H    0.422188  -0.001765  -0.000110   0.000053  -0.005803  -0.000071
    20  O   -0.001765   8.041969  -0.006376  -0.000241   0.234272  -0.103155
    21  H   -0.000110  -0.006376   0.439272  -0.005035  -0.007910   0.000169
    22  H    0.000053  -0.000241  -0.005035   0.453610  -0.001147   0.000000
    23  C   -0.005803   0.234272  -0.007910  -0.001147   6.870799   0.409117
    24  H   -0.000071  -0.103155   0.000169   0.000000   0.409117   0.440916
    25  H    0.000109   0.001252  -0.003009   0.000033   0.328195  -0.033058
    26  C    0.002139  -0.123475   0.009738   0.001534  -0.875864  -0.024838
    27  C   -0.000155  -0.011110  -0.009095  -0.000140   0.397142  -0.012277
    28  H   -0.000031  -0.012790  -0.004097   0.000046  -0.019212   0.003776
    29  H    0.000017   0.009645   0.000309  -0.000005  -0.053814  -0.005958
    30  C   -0.000010  -0.000749  -0.000780   0.000010  -0.257781   0.002059
    31  H    0.000000  -0.002354  -0.000070   0.000000  -0.005879   0.002500
    32  H    0.000000   0.000849   0.000432  -0.000006  -0.003035  -0.000137
    33  H    0.000000   0.000055  -0.000002   0.000000   0.006179  -0.000014
    34  H    0.000000  -0.000096  -0.000088   0.000001   0.003564  -0.000025
    35  H    0.000000   0.000031   0.000017   0.000000   0.001557   0.000058
              25         26         27         28         29         30
     1  C    0.000985   0.012704  -0.001352  -0.000784   0.000280  -0.000186
     2  C   -0.001226  -0.003677   0.000268   0.001215  -0.000184  -0.000349
     3  C   -0.000126  -0.001269   0.000052   0.000236  -0.000017  -0.000127
     4  C    0.000005   0.000136  -0.000017  -0.000011   0.000001   0.000002
     5  C   -0.000072  -0.001655   0.000116   0.000060  -0.000008  -0.000030
     6  C   -0.000422  -0.001929  -0.000049   0.000098  -0.000032  -0.000179
     7  H    0.000000   0.000050  -0.000002  -0.000001   0.000000   0.000001
     8  H    0.000000   0.000000   0.000000   0.000000   0.000000   0.000000
     9  H    0.000000   0.000000   0.000000   0.000000   0.000000   0.000000
    10  H    0.000000   0.000000   0.000000   0.000000   0.000000   0.000000
    11  H    0.000000   0.000009   0.000001   0.000000   0.000000   0.000000
    12  C   -0.020916  -0.085598  -0.006304   0.006849  -0.003196  -0.006917
    13  C   -0.007237   0.058979   0.010449  -0.000535  -0.003417   0.002318
    14  C   -0.097249  -0.002395   0.069711   0.030497  -0.040965   0.017783
    15  C   -0.210862  -0.187541   0.042925   0.023733  -0.050067   0.002446
    16  C    0.223466   0.112592  -0.105937  -0.041638   0.066934  -0.022446
    17  C    0.059783   0.049145  -0.039344  -0.015329   0.011065  -0.012906
    18  H   -0.000003  -0.000479  -0.000008  -0.000001   0.000000  -0.000003
    19  H    0.000109   0.002139  -0.000155  -0.000031   0.000017  -0.000010
    20  O    0.001252  -0.123475  -0.011110  -0.012790   0.009645  -0.000749
    21  H   -0.003009   0.009738  -0.009095  -0.004097   0.000309  -0.000780
    22  H    0.000033   0.001534  -0.000140   0.000046  -0.000005   0.000010
    23  C    0.328195  -0.875864   0.397142  -0.019212  -0.053814  -0.257781
    24  H   -0.033058  -0.024838  -0.012277   0.003776  -0.005958   0.002059
    25  H    0.475198   0.066714  -0.050004  -0.008509   0.004466   0.008680
    26  C    0.066714   7.149215  -0.872953   0.430494   0.459715   0.252647
    27  C   -0.050004  -0.872953   6.492652  -0.052673  -0.056747  -0.257298
    28  H   -0.008509   0.430494  -0.052673   0.427981  -0.035980  -0.009250
    29  H    0.004466   0.459715  -0.056747  -0.035980   0.433001  -0.000234
    30  C    0.008680   0.252647  -0.257298  -0.009250  -0.000234   6.269221
    31  H   -0.000356  -0.056410   0.442908   0.004812  -0.007218  -0.052953
    32  H    0.003559  -0.039440   0.414932  -0.007440   0.005715  -0.042378
    33  H   -0.000018   0.062000  -0.086441  -0.000218  -0.000192   0.367388
    34  H    0.000031  -0.051241   0.014916   0.002401  -0.000456   0.381677
    35  H   -0.000004  -0.030892  -0.004915   0.000077   0.003803   0.375406
              31         32         33         34         35
     1  C    0.000006   0.000044   0.000000   0.000001   0.000004
     2  C    0.000005  -0.000106   0.000001   0.000011  -0.000003
     3  C    0.000000  -0.000009   0.000000   0.000002   0.000000
     4  C    0.000000   0.000000   0.000000   0.000000   0.000000
     5  C    0.000000  -0.000002   0.000000   0.000000   0.000000
     6  C    0.000004  -0.000013   0.000000   0.000004   0.000000
     7  H    0.000000   0.000000   0.000000   0.000000   0.000000
     8  H    0.000000   0.000000   0.000000   0.000000   0.000000
     9  H    0.000000   0.000000   0.000000   0.000000   0.000000
    10  H    0.000000   0.000000   0.000000   0.000000   0.000000
    11  H    0.000000   0.000000   0.000000   0.000000   0.000000
    12  C    0.000517  -0.001637   0.000010   0.000263  -0.000073
    13  C    0.000122  -0.000199  -0.000010  -0.000033   0.000007
    14  C    0.001554  -0.005474  -0.000151   0.000024  -0.000355
    15  C    0.005476  -0.021877  -0.000038  -0.002733  -0.000036
    16  C   -0.002429   0.018361   0.000269  -0.000252   0.001450
    17  C    0.000755   0.003889   0.000079   0.000578   0.000135
    18  H    0.000000   0.000000   0.000000   0.000000   0.000000
    19  H    0.000000   0.000000   0.000000   0.000000   0.000000
    20  O   -0.002354   0.000849   0.000055  -0.000096   0.000031
    21  H   -0.000070   0.000432  -0.000002  -0.000088   0.000017
    22  H    0.000000  -0.000006   0.000000   0.000001   0.000000
    23  C   -0.005879  -0.003035   0.006179   0.003564   0.001557
    24  H    0.002500  -0.000137  -0.000014  -0.000025   0.000058
    25  H   -0.000356   0.003559  -0.000018   0.000031  -0.000004
    26  C   -0.056410  -0.039440   0.062000  -0.051241  -0.030892
    27  C    0.442908   0.414932  -0.086441   0.014916  -0.004915
    28  H    0.004812  -0.007440  -0.000218   0.002401   0.000077
    29  H   -0.007218   0.005715  -0.000192  -0.000456   0.003803
    30  C   -0.052953  -0.042378   0.367388   0.381677   0.375406
    31  H    0.464425  -0.042832  -0.003460   0.005456  -0.006999
    32  H   -0.042832   0.474826  -0.003405  -0.008367   0.006118
    33  H   -0.003460  -0.003405   0.441986  -0.023944  -0.023555
    34  H    0.005456  -0.008367  -0.023944   0.453435  -0.034082
    35  H   -0.006999   0.006118  -0.023555  -0.034082   0.452216
 Mulliken charges:
               1
     1  C    0.826396
     2  C   -0.063627
     3  C   -0.850595
     4  C   -0.307194
     5  C   -0.740827
     6  C   -0.132471
     7  H    0.241957
     8  H    0.238397
     9  H    0.239943
    10  H    0.239037
    11  H    0.242056
    12  C    0.917931
    13  C   -0.424663
    14  C   -0.431555
    15  C   -0.393190
    16  C   -0.201044
    17  C   -0.524237
    18  H    0.246000
    19  H    0.247385
    20  O    0.028837
    21  H    0.252434
    22  H    0.243135
    23  C   -0.605513
    24  H    0.270993
    25  H    0.260595
    26  C   -0.308153
    27  C   -0.319250
    28  H    0.276224
    29  H    0.263536
    30  C   -1.015064
    31  H    0.252419
    32  H    0.247634
    33  H    0.263482
    34  H    0.258952
    35  H    0.260039
 Sum of Mulliken charges =   0.00000
 Mulliken charges with hydrogens summed into heavy atoms:
               1
     1  C    0.826396
     2  C    0.178329
     3  C   -0.612197
     4  C   -0.067250
     5  C   -0.501790
     6  C    0.109585
    12  C    0.917931
    13  C   -0.178663
    14  C   -0.184170
    15  C   -0.393190
    16  C    0.051390
    17  C   -0.281101
    20  O    0.028837
    23  C   -0.073925
    26  C    0.231607
    27  C    0.180802
    30  C   -0.232591
 Electronic spatial extent (au):  <R**2>=           9615.4264
 Charge=              0.0000 electrons
 Dipole moment (field-independent basis, Debye):
    X=             -1.9678    Y=              0.2684    Z=              0.9768  Tot=              2.2132
 Quadrupole moment (field-independent basis, Debye-Ang):
   XX=            -78.8787   YY=           -109.1531   ZZ=            -95.6084
   XY=             -1.9420   XZ=             -6.0893   YZ=             -1.8661
 Traceless Quadrupole moment (field-independent basis, Debye-Ang):
   XX=             15.6681   YY=            -14.6064   ZZ=             -1.0617
   XY=             -1.9420   XZ=             -6.0893   YZ=             -1.8661
 Octapole moment (field-independent basis, Debye-Ang**2):
  XXX=            583.4396  YYY=            -91.2502  ZZZ=            -12.7475  XYY=            238.4262
  XXY=            -18.4184  XXZ=             19.5802  XZZ=            249.6034  YZZ=            -32.2488
  YYZ=             -6.7154  XYZ=              0.7545
 Hexadecapole moment (field-independent basis, Debye-Ang**3):
 XXXX=         -10210.3903 YYYY=           -656.0577 ZZZZ=           -993.9907 XXXY=            798.2751
 XXXZ=            -78.0708 YYYX=            923.8479 YYYZ=            -80.4580 ZZZX=             -4.8267
 ZZZY=            -94.2164 XXYY=          -2053.9052 XXZZ=          -2093.8859 YYZZ=           -299.4391
 XXYZ=            -41.8601 YYXZ=              1.1436 ZZXY=            300.7105
 N-N= 1.075872194678D+03 E-N=-3.767677750051D+03  KE= 6.925556628469D+02
 Leave Link  601 at Mon Oct  2 19:44:46 2017, MaxMem=  1879048192 cpu:         0.2
 (Enter /share/apps/gaussian/g09_D01/g09/l9999.exe)
 1\1\GINC-NXV42\SP\RwB97XD TD-FC\6-311+G(d)\C16H18O1\BTX008\02-Oct-2017
 \0\\#p wb97xd 6-311+G(d) nosymm td=(nstates=5,50-50)\\m1 tddft singlet
 s and triplets\\0,1\C,0,0.318128,-0.14937,0.15425\C,0,0.696,-0.319956,
 1.544013\C,0,2.017379,-0.385401,1.919392\C,0,3.046292,-0.294344,0.9725
 25\C,0,2.715748,-0.136874,-0.38713\C,0,1.407687,-0.065892,-0.792582\H,
 0,-0.063578,-0.395022,2.311537\H,0,2.264888,-0.509088,2.969394\H,0,4.0
 84641,-0.346437,1.281842\H,0,3.50683,-0.07191,-1.127651\H,0,1.201384,0
 .048774,-1.84965\C,0,-1.030102,-0.065268,-0.240325\C,0,-1.425572,0.128
 89,-1.620536\C,0,-2.733661,0.193854,-1.993538\C,0,-3.770909,0.071493,-
 1.032857\C,0,-3.436884,-0.105557,0.323463\C,0,-2.12238,-0.16724,0.7153
 65\H,0,-0.669592,0.229367,-2.38837\H,0,-3.014701,0.338198,-3.030917\O,
 0,-5.018699,0.127061,-1.530277\H,0,-4.209293,-0.192371,1.078279\H,0,-1
 .911624,-0.297232,1.767972\C,0,-6.141304,0.075651,-0.659145\H,0,-6.977
 821,-0.178286,-1.312626\H,0,-6.022359,-0.746634,0.056563\C,0,-6.401431
 ,1.400458,0.044105\C,0,-7.630226,1.326987,0.947834\H,0,-5.524429,1.692
 902,0.631319\H,0,-6.53804,2.17781,-0.715543\C,0,-7.917785,2.647678,1.6
 54582\H,0,-8.503723,1.031555,0.354105\H,0,-7.488998,0.536205,1.694907\
 H,0,-8.80239,2.573499,2.292132\H,0,-7.077088,2.949587,2.286266\H,0,-8.
 094044,3.451792,0.93391\\Version=ES64L-G09RevD.01\HF=-695.669783\RMSD=
 6.620e-09\PG=C01 [X(C16H18O1)]\\@


 If fifty million people say a stupid thing,
 it is still a stupid thing.
                   -- Anatole France
 Job cpu time:       0 days  2 hours 21 minutes 39.0 seconds.
 File lengths (MBytes):  RWF=    482 Int=      0 D2E=      0 Chk=     65 Scr=      1
 Normal termination of Gaussian 09 at Mon Oct  2 19:44:46 2017.
