 Entering Gaussian System, Link 0=g09
 Input=m1-t1-opt.com
 Output=m1-t1-opt.out
 Initial command:
 /share/apps/gaussian/g09_D01/g09/l1.exe "/tmp/141590.1.all.q/Gau-22143.inp" -scrdir="/tmp/141590.1.all.q/"
 Entering Link 1 = /share/apps/gaussian/g09_D01/g09/l1.exe PID=     22144.
  
 Copyright (c) 1988,1990,1992,1993,1995,1998,2003,2009,2013,
            Gaussian, Inc.  All Rights Reserved.
  
 This is part of the Gaussian(R) 09 program.  It is based on
 the Gaussian(R) 03 system (copyright 2003, Gaussian, Inc.),
 the Gaussian(R) 98 system (copyright 1998, Gaussian, Inc.),
 the Gaussian(R) 94 system (copyright 1995, Gaussian, Inc.),
 the Gaussian 92(TM) system (copyright 1992, Gaussian, Inc.),
 the Gaussian 90(TM) system (copyright 1990, Gaussian, Inc.),
 the Gaussian 88(TM) system (copyright 1988, Gaussian, Inc.),
 the Gaussian 86(TM) system (copyright 1986, Carnegie Mellon
 University), and the Gaussian 82(TM) system (copyright 1983,
 Carnegie Mellon University). Gaussian is a federally registered
 trademark of Gaussian, Inc.
  
 This software contains proprietary and confidential information,
 including trade secrets, belonging to Gaussian, Inc.
  
 This software is provided under written license and may be
 used, copied, transmitted, or stored only in accord with that
 written license.
  
 The following legend is applicable only to US Government
 contracts under FAR:
  
                    RESTRICTED RIGHTS LEGEND
  
 Use, reproduction and disclosure by the US Government is
 subject to restrictions as set forth in subparagraphs (a)
 and (c) of the Commercial Computer Software - Restricted
 Rights clause in FAR 52.227-19.
  
 Gaussian, Inc.
 340 Quinnipiac St., Bldg. 40, Wallingford CT 06492
  
  
 ---------------------------------------------------------------
 Warning -- This program may not be used in any manner that
 competes with the business of Gaussian, Inc. or will provide
 assistance to any competitor of Gaussian, Inc.  The licensee
 of this program is prohibited from giving any competitor of
 Gaussian, Inc. access to this program.  By using this program,
 the user acknowledges that Gaussian, Inc. is engaged in the
 business of creating and licensing software in the field of
 computational chemistry and represents and warrants to the
 licensee that it is not a competitor of Gaussian, Inc. and that
 it will not use this program in any manner prohibited above.
 ---------------------------------------------------------------
  

 Cite this work as:
 Gaussian 09, Revision D.01,
 M. J. Frisch, G. W. Trucks, H. B. Schlegel, G. E. Scuseria, 
 M. A. Robb, J. R. Cheeseman, G. Scalmani, V. Barone, B. Mennucci, 
 G. A. Petersson, H. Nakatsuji, M. Caricato, X. Li, H. P. Hratchian, 
 A. F. Izmaylov, J. Bloino, G. Zheng, J. L. Sonnenberg, M. Hada, 
 M. Ehara, K. Toyota, R. Fukuda, J. Hasegawa, M. Ishida, T. Nakajima, 
 Y. Honda, O. Kitao, H. Nakai, T. Vreven, J. A. Montgomery, Jr., 
 J. E. Peralta, F. Ogliaro, M. Bearpark, J. J. Heyd, E. Brothers, 
 K. N. Kudin, V. N. Staroverov, T. Keith, R. Kobayashi, J. Normand, 
 K. Raghavachari, A. Rendell, J. C. Burant, S. S. Iyengar, J. Tomasi, 
 M. Cossi, N. Rega, J. M. Millam, M. Klene, J. E. Knox, J. B. Cross, 
 V. Bakken, C. Adamo, J. Jaramillo, R. Gomperts, R. E. Stratmann, 
 O. Yazyev, A. J. Austin, R. Cammi, C. Pomelli, J. W. Ochterski, 
 R. L. Martin, K. Morokuma, V. G. Zakrzewski, G. A. Voth, 
 P. Salvador, J. J. Dannenberg, S. Dapprich, A. D. Daniels, 
 O. Farkas, J. B. Foresman, J. V. Ortiz, J. Cioslowski, 
 and D. J. Fox, Gaussian, Inc., Wallingford CT, 2013.
 
 ******************************************
 Gaussian 09:  ES64L-G09RevD.01 24-Apr-2013
                 3-Oct-2017 
 ******************************************
 %chk=m1-t1-opt
 %mem=27GB
 %nproc=4
 Will use up to    4 processors via shared memory.
 ----------------------------------------------------------------------
 #p wb97xd 6-311+G(d) nosymm td=(nstates=2,50-50) geom=check guess=read
 ----------------------------------------------------------------------
 1/29=2,38=1/1;
 2/12=2,15=1,40=1/2;
 3/5=4,6=6,7=11,11=9,14=-4,16=1,25=1,30=1,74=-58,116=-2/1,2,8,3;
 4/5=1/1;
 5/5=2,38=6/2;
 8/6=1,10=2,108=2/1;
 9/41=2,42=1,48=2,70=2/14;
 6/7=2,8=2,9=2,10=2/1;
 99/5=1,9=1/99;
 Leave Link    1 at Tue Oct  3 18:39:23 2017, MaxMem=  3623878656 cpu:         0.3
 (Enter /share/apps/gaussian/g09_D01/g09/l101.exe)
 ------------------------------
 m1 tddft singlets and triplets
 ------------------------------
 Structure from the checkpoint file:  "m1-t1-opt.chk"
 Charge =  0 Multiplicity = 1
 Redundant internal coordinates found in file.
 C,0,0.2987886971,-0.1371167355,0.1641375348
 C,0,0.6986827195,-0.3634248353,1.5536027204
 C,0,2.0144153425,-0.4224968094,1.9221697432
 C,0,3.0488042378,-0.2650077822,0.9710382821
 C,0,2.7068296968,-0.0415391768,-0.3849354065
 C,0,1.4015299738,0.0216432434,-0.7839155162
 H,0,-0.0570203362,-0.4914307033,2.3174088924
 H,0,2.2680593575,-0.5942799404,2.9636481204
 H,0,4.0881346024,-0.3159828029,1.2745368766
 H,0,3.495501176,0.0808860312,-1.1207917919
 H,0,1.1909220821,0.1948916762,-1.8311567632
 C,0,-1.0328764505,-0.0792840314,-0.2255487432
 C,0,-1.4442788412,0.1361016341,-1.6181429755
 C,0,-2.749356376,0.1765713692,-1.9829156281
 C,0,-3.7965620327,0.0157178478,-1.0240444832
 C,0,-3.4552571207,-0.1879616135,0.3339276395
 C,0,-2.1463594403,-0.2328201324,0.7267937633
 H,0,-0.6938810108,0.2653768491,-2.3864460291
 H,0,-3.0319546333,0.3339127435,-3.0184416732
 O,0,-5.0509459887,0.0488304416,-1.5297654723
 H,0,-4.2256807599,-0.308147408,1.0868239217
 H,0,-1.9383051556,-0.3859614512,1.7767580778
 C,0,-6.1658823838,0.0376835589,-0.6502428923
 H,0,-7.0147521257,-0.2111080603,-1.2901703796
 H,0,-6.0641858518,-0.7723317508,0.0819228958
 C,0,-6.3907413909,1.3803667371,0.0291389571
 C,0,-7.6087248495,1.357925652,0.9497594
 H,0,-5.4999783842,1.6647412048,0.5998414
 H,0,-6.5172384023,2.1448926734,-0.7453503451
 C,0,-7.8590765726,2.7052026474,1.6196320336
 H,0,-8.4966713967,1.0628969002,0.3774138628
 H,0,-7.473215643,0.5871542557,1.7185916624
 H,0,-8.7306251465,2.6685490164,2.2782687447
 H,0,-6.9992389167,3.0122185467,2.2227502978
 H,0,-8.0365146756,3.4882092049,0.8763112731
 Recover connectivity data from disk.
 NAtoms=     35 NQM=       35 NQMF=       0 NMMI=      0 NMMIF=      0
                NMic=       0 NMicF=      0.
                    Isotopes and Nuclear Properties:
 (Nuclear quadrupole moments (NQMom) in fm**2, nuclear magnetic moments (NMagM)
  in nuclear magnetons)

  Atom         1           2           3           4           5           6           7           8           9          10
 IAtWgt=          12          12          12          12          12          12           1           1           1           1
 AtmWgt=  12.0000000  12.0000000  12.0000000  12.0000000  12.0000000  12.0000000   1.0078250   1.0078250   1.0078250   1.0078250
 NucSpn=           0           0           0           0           0           0           1           1           1           1
 AtZEff=  -3.6000000  -3.6000000  -3.6000000  -3.6000000  -3.6000000  -3.6000000  -1.0000000  -1.0000000  -1.0000000  -1.0000000
 NQMom=    0.0000000   0.0000000   0.0000000   0.0000000   0.0000000   0.0000000   0.0000000   0.0000000   0.0000000   0.0000000
 NMagM=    0.0000000   0.0000000   0.0000000   0.0000000   0.0000000   0.0000000   2.7928460   2.7928460   2.7928460   2.7928460
 AtZNuc=   6.0000000   6.0000000   6.0000000   6.0000000   6.0000000   6.0000000   1.0000000   1.0000000   1.0000000   1.0000000

  Atom        11          12          13          14          15          16          17          18          19          20
 IAtWgt=           1          12          12          12          12          12          12           1           1          16
 AtmWgt=   1.0078250  12.0000000  12.0000000  12.0000000  12.0000000  12.0000000  12.0000000   1.0078250   1.0078250  15.9949146
 NucSpn=           1           0           0           0           0           0           0           1           1           0
 AtZEff=  -1.0000000  -3.6000000  -3.6000000  -3.6000000  -3.6000000  -3.6000000  -3.6000000  -1.0000000  -1.0000000  -5.6000000
 NQMom=    0.0000000   0.0000000   0.0000000   0.0000000   0.0000000   0.0000000   0.0000000   0.0000000   0.0000000   0.0000000
 NMagM=    2.7928460   0.0000000   0.0000000   0.0000000   0.0000000   0.0000000   0.0000000   2.7928460   2.7928460   0.0000000
 AtZNuc=   1.0000000   6.0000000   6.0000000   6.0000000   6.0000000   6.0000000   6.0000000   1.0000000   1.0000000   8.0000000

  Atom        21          22          23          24          25          26          27          28          29          30
 IAtWgt=           1           1          12           1           1          12          12           1           1          12
 AtmWgt=   1.0078250   1.0078250  12.0000000   1.0078250   1.0078250  12.0000000  12.0000000   1.0078250   1.0078250  12.0000000
 NucSpn=           1           1           0           1           1           0           0           1           1           0
 AtZEff=  -1.0000000  -1.0000000  -3.6000000  -1.0000000  -1.0000000  -3.6000000  -3.6000000  -1.0000000  -1.0000000  -3.6000000
 NQMom=    0.0000000   0.0000000   0.0000000   0.0000000   0.0000000   0.0000000   0.0000000   0.0000000   0.0000000   0.0000000
 NMagM=    2.7928460   2.7928460   0.0000000   2.7928460   2.7928460   0.0000000   0.0000000   2.7928460   2.7928460   0.0000000
 AtZNuc=   1.0000000   1.0000000   6.0000000   1.0000000   1.0000000   6.0000000   6.0000000   1.0000000   1.0000000   6.0000000

  Atom        31          32          33          34          35
 IAtWgt=           1           1           1           1           1
 AtmWgt=   1.0078250   1.0078250   1.0078250   1.0078250   1.0078250
 NucSpn=           1           1           1           1           1
 AtZEff=  -1.0000000  -1.0000000  -1.0000000  -1.0000000  -1.0000000
 NQMom=    0.0000000   0.0000000   0.0000000   0.0000000   0.0000000
 NMagM=    2.7928460   2.7928460   2.7928460   2.7928460   2.7928460
 AtZNuc=   1.0000000   1.0000000   1.0000000   1.0000000   1.0000000
 Leave Link  101 at Tue Oct  3 18:39:23 2017, MaxMem=  3623878656 cpu:         1.4
 (Enter /share/apps/gaussian/g09_D01/g09/l202.exe)
                          Input orientation:                          
 ---------------------------------------------------------------------
 Center     Atomic      Atomic             Coordinates (Angstroms)
 Number     Number       Type             X           Y           Z
 ---------------------------------------------------------------------
      1          6           0        0.298789   -0.137117    0.164138
      2          6           0        0.698683   -0.363425    1.553603
      3          6           0        2.014415   -0.422497    1.922170
      4          6           0        3.048804   -0.265008    0.971038
      5          6           0        2.706830   -0.041539   -0.384935
      6          6           0        1.401530    0.021643   -0.783916
      7          1           0       -0.057020   -0.491431    2.317409
      8          1           0        2.268059   -0.594280    2.963648
      9          1           0        4.088135   -0.315983    1.274537
     10          1           0        3.495501    0.080886   -1.120792
     11          1           0        1.190922    0.194892   -1.831157
     12          6           0       -1.032876   -0.079284   -0.225549
     13          6           0       -1.444279    0.136102   -1.618143
     14          6           0       -2.749356    0.176571   -1.982916
     15          6           0       -3.796562    0.015718   -1.024044
     16          6           0       -3.455257   -0.187962    0.333928
     17          6           0       -2.146359   -0.232820    0.726794
     18          1           0       -0.693881    0.265377   -2.386446
     19          1           0       -3.031955    0.333913   -3.018442
     20          8           0       -5.050946    0.048830   -1.529765
     21          1           0       -4.225681   -0.308147    1.086824
     22          1           0       -1.938305   -0.385961    1.776758
     23          6           0       -6.165882    0.037684   -0.650243
     24          1           0       -7.014752   -0.211108   -1.290170
     25          1           0       -6.064186   -0.772332    0.081923
     26          6           0       -6.390741    1.380367    0.029139
     27          6           0       -7.608725    1.357926    0.949759
     28          1           0       -5.499978    1.664741    0.599841
     29          1           0       -6.517238    2.144893   -0.745350
     30          6           0       -7.859077    2.705203    1.619632
     31          1           0       -8.496671    1.062897    0.377414
     32          1           0       -7.473216    0.587154    1.718592
     33          1           0       -8.730625    2.668549    2.278269
     34          1           0       -6.999239    3.012219    2.222750
     35          1           0       -8.036515    3.488209    0.876311
 ---------------------------------------------------------------------
                    Distance matrix (angstroms):
                    1          2          3          4          5
     1  C    0.000000
     2  C    1.463470   0.000000
     3  C    2.472952   1.367656   0.000000
     4  C    2.868803   2.423250   1.414006   0.000000
     5  C    2.471695   2.809661   2.438709   1.416174   0.000000
     6  C    1.462890   2.471085   2.809944   2.423952   1.366376
     7  H    2.211044   1.082069   2.109932   3.392658   3.891521
     8  H    3.453156   2.122373   1.085598   2.165289   3.422142
     9  H    3.952736   3.401252   2.175106   1.083936   2.176504
    10  H    3.452179   3.895124   3.421494   2.166780   1.085576
    11  H    2.210731   3.465633   3.891885   3.393454   2.108419
    12  C    1.388716   2.498882   3.743859   4.257515   3.743291
    13  C    2.507879   3.860283   4.980804   5.201206   4.334058
    14  C    3.741581   4.968655   6.188869   6.522231   5.689559
    15  C    4.266970   5.195694   6.529906   7.135699   6.534971
    16  C    3.758227   4.332853   5.700424   6.535645   6.205604
    17  C    2.510874   2.965626   4.333238   5.201002   4.982567
    18  H    2.766382   4.225945   5.135388   5.055858   3.957913
    19  H    4.630824   5.942014   7.102651   7.297279   6.325343
    20  O    5.614583   6.537228   7.877648   8.482834   7.842314
    21  H    4.620760   4.946746   6.296799   7.275534   7.092028
    22  H    2.768945   2.646509   3.955563   5.053224   5.135058
    23  C    6.518109   7.220809   8.587569   9.361123   8.877031
    24  H    7.457102   8.222367   9.585910  10.314608   9.765109
    25  H    6.395131   6.933213   8.292930   9.170305   8.813781
    26  C    6.860816   7.458199   8.802303   9.628056   9.217325
    27  C    8.085860   8.505333   9.834649  10.780412  10.495265
    28  H    6.087876   6.591397   7.910198   8.771739   8.439957
    29  H    7.245203   7.977867   9.300337  10.013130   9.486507
    30  C    8.760594   9.091539  10.361461  11.323634  11.099606
    31  H    8.879507   9.379358  10.727330  11.636740  11.283590
    32  H    7.958954   8.228654   9.543374  10.582907  10.414096
    33  H    9.688737   9.931256  11.186477  12.209405  12.052079
    34  H    8.210810   8.432125   9.650574  10.642846  10.503963
    35  H    9.117426   9.570657  10.835527  11.703842  11.378458
                    6          7          8          9         10
     6  C    0.000000
     7  H    3.465375   0.000000
     8  H    3.895442   2.415409   0.000000
     9  H    3.401332   4.277929   2.498644   0.000000
    10  H    2.121724   4.976864   4.317999   2.499264   0.000000
    11  H    1.082167   4.386228   4.977265   4.277869   2.414270
    12  C    2.499659   2.754777   4.618698   5.341445   4.618801
    13  C    2.967771   4.219817   5.942030   6.259359   4.965061
    14  C    4.323362   5.117391   7.087818   7.589788   6.304812
    15  C    5.203639   5.040504   7.283778   8.219607   7.292996
    16  C    4.988175   3.946429   6.311646   7.602887   7.106443
    17  C    3.864520   2.638612   4.961982   6.259062   5.944962
    18  H    2.649199   4.806724   6.175403   6.050492   4.380279
    19  H    4.974576   6.164635   8.045936   8.339526   6.802410
    20  O    6.495497   6.327079   8.612328   9.566608   8.556287
    21  H    5.939186   4.350363   6.765575   8.315938   8.039998
    22  H    4.228202   1.960270   4.375569   6.047735   6.175759
    23  C    7.568610   6.812130   9.197334  10.439096   9.672932
    24  H    8.434706   7.842400  10.218238  11.395737  10.515673
    25  H    7.557578   6.415788   8.818296  10.232311   9.672751
    26  C    7.951521   6.989694   9.353363  10.688099  10.037369
    27  C    9.272323   7.894227  10.267313  11.820489  11.367579
    28  H    7.228096   6.101222   8.428118   9.813786   9.294505
    29  H    8.198571   7.620047   9.921754  11.072930  10.230153
    30  C    9.936668   8.460345  10.735541  12.328119  11.971775
    31  H   10.020344   8.798138  11.194386  12.691867  12.125229
    32  H    9.238152   7.518104   9.891329  11.605070  11.341568
    33  H   10.910713   9.231383  11.492905  13.199830  12.950976
    34  H    9.410446   7.776819   9.971889  11.614899  11.397875
    35  H   10.190688   9.032532  11.278650  12.713677  12.189572
                   11         12         13         14         15
    11  H    0.000000
    12  C    2.756525   0.000000
    13  C    2.644450   1.467979   0.000000
    14  C    3.943242   2.469839   1.355701   0.000000
    15  C    5.055545   2.878294   2.429132   1.428967   0.000000
    16  C    5.140151   2.488524   2.821282   2.449274   1.414943
    17  C    4.226523   1.473219   2.475429   2.806017   2.418755
    18  H    1.966163   2.214314   1.081711   2.096593   3.397808
    19  H    4.388811   3.459378   2.126189   1.084865   2.159512
    20  O    6.250847   4.226379   3.608805   2.349250   1.352897
    21  H    6.173107   3.459581   3.905176   3.440609   2.178255
    22  H    4.811081   2.218803   3.470153   3.887080   3.385109
    23  C    7.452640   5.151873   4.820794   3.669871   2.398727
    24  H    8.233504   6.077305   5.590912   4.338639   3.237132
    25  H    7.565182   5.088116   5.005898   4.018964   2.643162
    26  C    7.896054   5.558971   5.359965   4.330955   3.114680
    27  C    9.301609   6.832913   6.788768   5.797382   4.497778
    28  H    7.269000   4.865993   4.868767   4.056008   2.873658
    29  H    8.024788   5.940992   5.525570   4.427504   3.465997
    30  C   10.005602   7.599675   7.631061   6.744002   5.543138
    31  H    9.974000   7.574720   7.387654   6.276015   5.015147
    32  H    9.371332   6.760310   6.905456   6.015362   4.622378
    33  H   11.020139   8.548393   8.642115   7.755206   6.502904
    34  H    9.562961   7.151856   7.340442   6.617403   5.456907
    35  H   10.164739   7.936753   7.804902   6.862665   5.800582
                   16         17         18         19         20
    16  C    0.000000
    17  C    1.367322   0.000000
    18  H    3.902710   3.471333   0.000000
    19  H    3.419052   3.890020   2.422954   0.000000
    20  O    2.464882   3.688904   4.445763   2.524630   0.000000
    21  H    1.083905   2.111604   4.986596   4.323243   2.766774
    22  H    2.102881   1.081279   4.393757   4.970737   4.561872
    23  C    2.892576   4.257460   5.745350   3.939241   1.420129
    24  H    3.912574   5.269712   6.432905   4.375688   1.995372
    25  H    2.685424   4.007031   6.000821   4.475541   2.073283
    26  C    3.342098   4.593895   6.287485   4.654488   2.449127
    27  C    4.474406   5.693647   7.754934   6.143456   3.795261
    28  H    2.772021   3.855336   5.828782   4.577578   2.710724
    29  H    3.997847   5.188960   6.335398   4.538039   2.675593
    30  C    5.423750   6.485698   8.563962   7.101820   4.986042
    31  H    5.194458   6.490563   8.316159   6.475058   4.066779
    32  H    4.319964   5.480093   7.931851   6.498339   4.087665
    33  H    6.306316   7.360542   9.598128   8.122839   5.907968
    34  H    5.135038   6.026492   8.279334   7.098081   5.163225
    35  H    5.898842   6.968669   8.657165   7.082677   5.150937
                   21         22         23         24         25
    21  H    0.000000
    22  H    2.390429   0.000000
    23  C    2.627048   4.893079   0.000000
    24  H    3.665847   5.933543   1.091780   0.000000
    25  H    2.146018   4.477124   1.096601   1.761019   0.000000
    26  C    2.942323   5.098850   1.521486   2.159342   2.177966
    27  C    3.773536   5.989886   2.526824   2.798563   2.770693
    28  H    2.398599   4.275047   2.157187   3.063575   2.554583
    29  H    3.824331   5.808002   2.138417   2.468823   3.065915
    30  C    4.750340   6.680982   3.890359   4.205318   4.204691
    31  H    4.541408   6.860723   2.745855   2.569049   3.061432
    32  H    3.427416   5.620104   2.760872   3.146436   2.551911
    33  H    5.529447   7.464393   4.698461   4.895958   4.875807
    34  H    4.473006   6.112249   4.218582   4.767671   4.447503
    35  H    5.383223   7.280670   4.211385   4.407107   4.761653
                   26         27         28         29         30
    26  C    0.000000
    27  C    1.526935   0.000000
    28  H    1.095458   2.159488   0.000000
    29  H    1.095598   2.164268   1.753540   0.000000
    30  C    2.537886   1.525307   2.772702   2.776260   0.000000
    31  H    2.158014   1.096846   3.064614   2.519815   2.155644
    32  H    2.157588   1.097066   2.511267   3.067809   2.155182
    33  H    3.491855   2.177460   3.776483   3.783592   1.093043
    34  H    2.800918   2.174549   2.587916   3.129569   1.094226
    35  H    2.805222   2.174053   3.136158   2.596630   1.094125
                   31         32         33         34         35
    31  H    0.000000
    32  H    1.752869   0.000000
    33  H    2.499220   2.495300   0.000000
    34  H    3.073666   2.521858   1.766038   0.000000
    35  H    2.518488   3.072924   1.766102   1.765051   0.000000
 Symmetry turned off by external request.
 Stoichiometry    C16H18O
 Framework group  C1[X(C16H18O)]
 Deg. of freedom    99
 Full point group                 C1      NOp   1
 Rotational constants (GHZ):      1.2151973      0.1683649      0.1541289
 Leave Link  202 at Tue Oct  3 18:39:23 2017, MaxMem=  3623878656 cpu:         0.0
 (Enter /share/apps/gaussian/g09_D01/g09/l301.exe)
 Standard basis: 6-311+G(d) (5D, 7F)
 Ernie: Thresh=  0.10000D-02 Tol=  0.10000D-05 Strict=F.
   428 basis functions,   702 primitive gaussians,   445 cartesian basis functions
    61 alpha electrons       61 beta electrons
       nuclear repulsion energy      1074.1541053871 Hartrees.
 IExCor= 4639 DFT=T Ex+Corr=wB97XD ExCW=0 ScaHFX=  1.000000
 ScaDFX=  1.000000  1.000000  1.000000  1.000000 ScalE2=  1.000000  1.000000
 IRadAn=      0 IRanWt=     -1 IRanGd=            0 ICorTp=0 IEmpDi=121
  HFx wShort=  0.000000 wLong=  0.200000 cFull=  0.222036 cShort=  0.000000 cLong=  0.777964
  DFx wShort=  0.000000 wLong=  0.200000 cFull=  0.000000 cShort=  0.000000 cLong=  1.000000
 NAtoms=   35 NActive=   35 NUniq=   35 SFac= 1.00D+00 NAtFMM=   60 NAOKFM=F Big=F
 Integral buffers will be    131072 words long.
 Raffenetti 1 integral format.
 Two-electron integral symmetry is turned off.
 R6Disp:  Grimme-D2 Dispersion energy=       -0.0223916539 Hartrees.
 Nuclear repulsion after empirical dispersion term =     1074.1317137332 Hartrees.
 Leave Link  301 at Tue Oct  3 18:39:23 2017, MaxMem=  3623878656 cpu:         0.1
 (Enter /share/apps/gaussian/g09_D01/g09/l302.exe)
 NPDir=0 NMtPBC=     1 NCelOv=     1 NCel=       1 NClECP=     1 NCelD=      1
         NCelK=      1 NCelE2=     1 NClLst=     1 CellRange=     0.0.
 One-electron integrals computed using PRISM.
 NBasis=   428 RedAO= T EigKep=  1.16D-06  NBF=   428
 NBsUse=   424 1.00D-06 EigRej=  8.57D-07 NBFU=   424
 Precomputing XC quadrature grid using
 IXCGrd= 4 IRadAn=           0 IRanWt=          -1 IRanGd=           0 AccXCQ= 0.00D+00.
 Generated NRdTot=       0 NPtTot=           0 NUsed=           0 NTot=          32
 NSgBfM=   437   437   437   437   437 MxSgAt=    35 MxSgA2=    35.
 Leave Link  302 at Tue Oct  3 18:39:24 2017, MaxMem=  3623878656 cpu:         2.1
 (Enter /share/apps/gaussian/g09_D01/g09/l308.exe)
 Leave Link  308 at Tue Oct  3 18:39:24 2017, MaxMem=  3623878656 cpu:         0.3
 (Enter /share/apps/gaussian/g09_D01/g09/l303.exe)
 DipDrv:  MaxL=1.
 Leave Link  303 at Tue Oct  3 18:39:24 2017, MaxMem=  3623878656 cpu:         0.2
 (Enter /share/apps/gaussian/g09_D01/g09/l401.exe)
 Initial guess from the checkpoint file:  "m1-t1-opt.chk"
 B after Tr=     0.000000    0.000000    0.000000
         Rot=    1.000000    0.000000    0.000000    0.000000 Ang=   0.00 deg.
 Guess basis will be translated and rotated to current coordinates.
 JPrj=2 DoOrth=T DoCkMO=T.
 Leave Link  401 at Tue Oct  3 18:39:25 2017, MaxMem=  3623878656 cpu:         2.4
 (Enter /share/apps/gaussian/g09_D01/g09/l502.exe)
 Closed shell SCF:
 Using DIIS extrapolation, IDIIS=  1040.
 Two-electron integral symmetry not used.
 IVT=      618035 IEndB=      618035 NGot=  3623878656 MDV=  3623475732
 LenX=  3623475732 LenY=  3623277262
 Requested convergence on RMS density matrix=1.00D-08 within 128 cycles.
 Requested convergence on MAX density matrix=1.00D-06.
 Requested convergence on             energy=1.00D-06.
 No special actions if energy rises.
 Fock matrices will be formed incrementally for  20 cycles.

 Cycle   1  Pass 1  IDiag  1:
 FoFJK:  IHMeth= 1 ICntrl=       0 DoSepK=T KAlg= 0 I1Cent=   0 FoldK=F
 IRaf=         1 NMat=   1 IRICut=       1 DoRegI=T DoRafI=F ISym2E= 0.
 FoFCou: FMM=F IPFlag=           0 FMFlag=      100000 FMFlg1=           0
         NFxFlg=           0 DoJE=T BraDBF=F KetDBF=F FulRan=T
         wScrn=  0.000000 ICntrl=     500 IOpCl=  0 I1Cent=           0 NGrid=           0
         NMat0=    1 NMatS0=      1 NMatT0=    0 NMatD0=    1 NMtDS0=    0 NMtDT0=    0
 Symmetry not used in FoFCou.
 E= -695.661158174489    
 DIIS: error= 6.10D-09 at cycle   1 NSaved=   1.
 NSaved= 1 IEnMin= 1 EnMin= -695.661158174489     IErMin= 1 ErrMin= 6.10D-09
 ErrMax= 6.10D-09  0.00D+00 EMaxC= 1.00D-01 BMatC= 6.71D-15 BMatP= 6.71D-15
 IDIUse=1 WtCom= 1.00D+00 WtEn= 0.00D+00
 Coeff-Com:  0.100D+01
 Coeff:      0.100D+01
 Gap=     0.265 Goal=   None    Shift=    0.000
 RMSDP=6.35D-09 MaxDP=5.25D-07              OVMax= 7.17D-08

 SCF Done:  E(RwB97XD) =  -695.661158174     A.U. after    1 cycles
            NFock=  1  Conv=0.64D-08     -V/T= 2.0047
 KE= 6.924213867377D+02 PE=-3.764048644238D+03 EE= 1.301834385592D+03
 Leave Link  502 at Tue Oct  3 18:39:43 2017, MaxMem=  3623878656 cpu:        74.0
 (Enter /share/apps/gaussian/g09_D01/g09/l801.exe)
 DoSCS=F DFT=T ScalE2(SS,OS)=  1.000000  1.000000
 ExpMin= 4.38D-02 ExpMax= 8.59D+03 ExpMxC= 1.30D+03 IAcc=3 IRadAn=         5 AccDes= 0.00D+00
 HarFok:  IExCor=  205 AccDes= 0.00D+00 IRadAn=         5 IDoV=-2 UseB2=F ITyADJ=14
 ICtDFT= 12500011 ScaDFX=  1.000000  1.000000  1.000000  1.000000
 Largest valence mixing into a core orbital is  5.63D-05
 Largest core mixing into a valence orbital is  1.44D-05
 Range of M.O.s used for correlation:    18   424
 NBasis=   428 NAE=    61 NBE=    61 NFC=    17 NFV=     0
 NROrb=    407 NOA=    44 NOB=    44 NVA=   363 NVB=   363

 **** Warning!!: The largest alpha MO coefficient is  0.16285276D+03

 Leave Link  801 at Tue Oct  3 18:39:43 2017, MaxMem=  3623878656 cpu:         1.2
 (Enter /share/apps/gaussian/g09_D01/g09/l914.exe)
 RHF ground state
 MDV=  3623878656 DFT=T DoStab=F Mixed=T DoRPA=T DoScal=F NonHer=T
 Would need an additional         21729700000 words for in-memory AO integral storage.
 Making orbital integer symmetry assigments:
    16 initial guesses have been made.
 Convergence on wavefunction:    0.001000000000000
 Davidson Disk Diagonalization:  ConvIn= 1.00D-03 SkipCon=T Conv= 1.00D-03.
 Max sub-space:   200 roots to seek:    16 dimension of matrix:        31944
 Iteration     1 Dimension    16 NMult     0 NNew     16
 CISAX will form    16 AO SS matrices at one time.
 NMat=    16 NSing=     8 JSym2X= 0.
 FoFJK:  IHMeth= 1 ICntrl=       0 DoSepK=T KAlg= 0 I1Cent=   0 FoldK=F
 IRaf=         1 NMat=  32 IRICut=       1 DoRegI=T DoRafI=F ISym2E= 0.
 FoFCou: FMM=F IPFlag=           0 FMFlag=      100000 FMFlg1=           0
         NFxFlg=           0 DoJE=F BraDBF=F KetDBF=F FulRan=T
         wScrn=  0.000000 ICntrl=     500 IOpCl=  0 I1Cent=           0 NGrid=           0
         NMat0=    8 NMatS0=      8 NMatT0=    0 NMatD0=    8 NMtDS0=    0 NMtDT0=    0
 Symmetry not used in FoFCou.
 New state      1 was old state      2
 New state      2 was old state      4
 New state      3 was old state      1
 New state      4 was old state     14
 Excitation Energies [eV] at current iteration:
 Root      1 :     2.726358208156859
 Root      2 :     4.126883471350631
 Root      3 :     4.585152444003262
 Root      4 :     4.989269627280037
 Root      5 :     5.156427626494263
 Root      6 :     5.729896088458599
 Root      7 :     5.737115741289560
 Root      8 :     6.194111036965845
 Root      9 :     6.198479655140445
 Root     10 :     6.261303888639002
 Root     11 :     6.378519125878879
 Root     12 :     6.392211532976751
 Root     13 :     6.769391081256506
 Root     14 :     6.791887404944147
 Root     15 :     7.134261010230500
 Root     16 :     7.146830497110850
 Vector   4 SDiff=4.68D-01 TDiff=2.33D+00 assumed to be singlet.
 Vector   8 SDiff=4.66D-01 TDiff=1.93D+00 assumed to be singlet.
 Iteration     2 Dimension    24 NMult    16 NNew      8
 CISAX will form     8 AO SS matrices at one time.
 NMat=     8 NSing=     4 JSym2X= 0.
 Root      1 not converged, maximum delta is    0.113004191729930
 Root      2 not converged, maximum delta is    0.114451207056975
 Root      3 not converged, maximum delta is    0.042613519924127
 New state      4 was old state      5
 Root      4 not converged, maximum delta is    0.091043883152332
 Excitation Energies [eV] at current iteration:
 Root      1 :     2.053455566975434   Change is   -0.672902641181425
 Root      2 :     3.772941361965715   Change is   -0.353942109384916
 Root      3 :     3.889612513437415   Change is   -0.695539930565847
 Root      4 :     4.629763967243994   Change is   -0.526663659250269
 Iteration     3 Dimension    32 NMult    24 NNew      8
 CISAX will form     8 AO SS matrices at one time.
 NMat=     8 NSing=     4 JSym2X= 0.
 Root      1 not converged, maximum delta is    0.058082641109081
 Root      2 not converged, maximum delta is    0.038711372672417
 Root      3 not converged, maximum delta is    0.021415579116530
 Root      4 not converged, maximum delta is    0.072238247487541
 Excitation Energies [eV] at current iteration:
 Root      1 :     1.984584042193154   Change is   -0.068871524782279
 Root      2 :     3.750348142114229   Change is   -0.022593219851485
 Root      3 :     3.835830925355925   Change is   -0.053781588081490
 Root      4 :     4.434127587103585   Change is   -0.195636380140410
 Iteration     4 Dimension    40 NMult    32 NNew      8
 CISAX will form     8 AO SS matrices at one time.
 NMat=     8 NSing=     4 JSym2X= 0.
 Root      1 not converged, maximum delta is    0.013930755659504
 Root      2 not converged, maximum delta is    0.021949424571129
 Root      3 not converged, maximum delta is    0.010566472724147
 Root      4 not converged, maximum delta is    0.036885911529629
 Excitation Energies [eV] at current iteration:
 Root      1 :     1.977455010732326   Change is   -0.007129031460828
 Root      2 :     3.746068876003882   Change is   -0.004279266110348
 Root      3 :     3.825193568203403   Change is   -0.010637357152522
 Root      4 :     4.402504756305976   Change is   -0.031622830797608
 Iteration     5 Dimension    48 NMult    40 NNew      8
 CISAX will form     8 AO SS matrices at one time.
 NMat=     8 NSing=     4 JSym2X= 0.
 Root      1 not converged, maximum delta is    0.002482397381281
 Root      2 not converged, maximum delta is    0.018049624498232
 Root      3 not converged, maximum delta is    0.002994968988820
 Root      4 not converged, maximum delta is    0.022899735919176
 Excitation Energies [eV] at current iteration:
 Root      1 :     1.976988654986833   Change is   -0.000466355745493
 Root      2 :     3.743917747086303   Change is   -0.002151128917579
 Root      3 :     3.823866068983548   Change is   -0.001327499219855
 Root      4 :     4.397044571005575   Change is   -0.005460185300401
 Iteration     6 Dimension    56 NMult    48 NNew      8
 CISAX will form     8 AO SS matrices at one time.
 NMat=     8 NSing=     4 JSym2X= 0.
 Root      1 not converged, maximum delta is    0.001152218314022
 Root      2 not converged, maximum delta is    0.036638586976343
 Root      3 has converged.
 Root      4 not converged, maximum delta is    0.007013736091202
 Excitation Energies [eV] at current iteration:
 Root      1 :     1.976928195884441   Change is   -0.000060459102392
 Root      2 :     3.740030195223564   Change is   -0.003887551862739
 Root      3 :     3.823728229241092   Change is   -0.000137839742456
 Root      4 :     4.396256719142682   Change is   -0.000787851862892
 Iteration     7 Dimension    62 NMult    56 NNew      6
 CISAX will form     6 AO SS matrices at one time.
 NMat=     6 NSing=     2 JSym2X= 0.
 Root      1 has converged.
 Root      2 not converged, maximum delta is    0.050888117666324
 Root      3 has converged.
 Root      4 not converged, maximum delta is    0.002148103409650
 Excitation Energies [eV] at current iteration:
 Root      1 :     1.976920977957917   Change is   -0.000007217926524
 Root      2 :     3.735670476983994   Change is   -0.004359718239570
 Root      3 :     3.823726264587800   Change is   -0.000001964653291
 Root      4 :     4.396157055843639   Change is   -0.000099663299044
 Iteration     8 Dimension    66 NMult    62 NNew      4
 CISAX will form     4 AO SS matrices at one time.
 NMat=     4 NSing=     2 JSym2X= 0.
 Root      1 has converged.
 Root      2 not converged, maximum delta is    0.054440557122157
 Root      3 has converged.
 Root      4 not converged, maximum delta is    0.002199331858187
 Excitation Energies [eV] at current iteration:
 Root      1 :     1.976920222651772   Change is   -0.000000755306145
 Root      2 :     3.730822224767700   Change is   -0.004848252216294
 Root      3 :     3.823726222676083   Change is   -0.000000041911718
 Root      4 :     4.396104213933494   Change is   -0.000052841910144
 Iteration     9 Dimension    70 NMult    66 NNew      4
 CISAX will form     4 AO SS matrices at one time.
 NMat=     4 NSing=     2 JSym2X= 0.
 Root      1 has converged.
 Root      2 not converged, maximum delta is    0.017886519408749
 Root      3 has converged.
 Root      4 not converged, maximum delta is    0.001038154921249
 Excitation Energies [eV] at current iteration:
 Root      1 :     1.976920180860769   Change is   -0.000000041791003
 Root      2 :     3.729545317447178   Change is   -0.001276907320522
 Root      3 :     3.823726056446787   Change is   -0.000000166229296
 Root      4 :     4.396090049405615   Change is   -0.000014164527880
 Iteration    10 Dimension    74 NMult    70 NNew      4
 CISAX will form     4 AO SS matrices at one time.
 NMat=     4 NSing=     2 JSym2X= 0.
 Root      1 has converged.
 Root      2 not converged, maximum delta is    0.005485718908029
 Root      3 has converged.
 Root      4 has converged.
 Excitation Energies [eV] at current iteration:
 Root      1 :     1.976920162567342   Change is   -0.000000018293427
 Root      2 :     3.729293851367842   Change is   -0.000251466079336
 Root      3 :     3.823725960742156   Change is   -0.000000095704631
 Root      4 :     4.396087831786017   Change is   -0.000002217619597
 Iteration    11 Dimension    76 NMult    74 NNew      2
 CISAX will form     2 AO SS matrices at one time.
 NMat=     2 NSing=     0 JSym2X= 0.
 Root      1 has converged.
 Root      2 has converged.
 Root      3 has converged.
 Root      4 has converged.
 Excitation Energies [eV] at current iteration:
 Root      1 :     1.976920151683743   Change is   -0.000000010883599
 Root      2 :     3.729268561691419   Change is   -0.000025289676423
 Root      3 :     3.823725960742241   Change is    0.000000000000085
 Root      4 :     4.396087831786073   Change is    0.000000000000056
 Convergence achieved on expansion vectors.
 ***********************************************************************
 Excited states from <AA,BB:AA,BB> singles matrix:
 ***********************************************************************
 
 1PDM for each excited state written to RWF  633
 Ground to excited state transition densities written to RWF  633
 Ground to excited state transition electric dipole moments (Au):
       state          X           Y           Z        Dip. S.      Osc.
         1         0.0000      0.0000      0.0000      0.0000      0.0000
         2         0.0000      0.0000      0.0000      0.0000      0.0000
         3        -2.7787      0.1621     -0.5826      8.0868      0.7576
         4         0.1355     -0.0395      0.1919      0.0568      0.0061
 Ground to excited state transition velocity dipole moments (Au):
       state          X           Y           Z        Dip. S.      Osc.
         1         0.0000      0.0000      0.0000      0.0000      0.0000
         2         0.0000      0.0000      0.0000      0.0000      0.0000
         3         0.3917     -0.0226      0.0825      0.1608      0.7628
         4        -0.0221      0.0066     -0.0317      0.0015      0.0063
 Ground to excited state transition magnetic dipole moments (Au):
       state          X           Y           Z
         1         0.0000      0.0000      0.0000
         2         0.0000      0.0000      0.0000
         3        -0.0466     -0.2592      0.1571
         4         0.0113     -0.8598     -0.1731
 Ground to excited state transition velocity quadrupole moments (Au):
       state          XX          YY          ZZ          XY          XZ          YZ
         1         0.0000      0.0000      0.0000      0.0000      0.0000      0.0000
         2         0.0000      0.0000      0.0000      0.0000      0.0000      0.0000
         3        -1.4980     -0.0303      0.0173      0.0743      0.0247     -0.0594
         4        -0.2069     -0.0101      0.2807     -0.0797      0.4467     -0.0266
 <0|del|b> * <b|rxdel|0> + <0|del|b> * <b|delr+rdel|0>
 Rotatory Strengths (R) in cgs (10**-40 erg-esu-cm/Gauss)
       state          XX          YY          ZZ    R(velocity)    E-M Angle
         1         0.0000      0.0000      0.0000      0.0000       90.00
         2         0.0000      0.0000      0.0000      0.0000       90.00
         3        64.1443    -87.3365     25.8821      0.8966       89.75
         4        -1.2851      7.2227     -7.7880     -0.6168       90.70
 1/2[<0|r|b>*<b|rxdel|0> + (<0|rxdel|b>*<b|r|0>)*]
 Rotatory Strengths (R) in cgs (10**-40 erg-esu-cm/Gauss)
       state          XX          YY          ZZ     R(length)
         1         0.0000      0.0000      0.0000      0.0000
         2         0.0000      0.0000      0.0000      0.0000
         3       -91.6433     29.7234     64.7231      0.9344
         4        -1.0811    -23.9918     23.5002     -0.5243
  1/2[<0|del|b>*<b|r|0> + (<0|r|b>*<b|del|0>)*] (Au)
       state          X           Y           Z        Dip. S.   Osc.(frdel)
         1         0.0000      0.0000      0.0000      0.0000      0.0000
         2         0.0000      0.0000      0.0000      0.0000      0.0000
         3        -1.0885     -0.0037     -0.0481      1.1402      0.7602
         4        -0.0030     -0.0003     -0.0061      0.0093      0.0062

 Excitation energies and oscillator strengths:
 
 Excited state symmetry could not be determined.
 Excited State   1:      Triplet-?Sym    1.9769 eV  627.16 nm  f=0.0000  <S**2>=2.000
      61 -> 62         0.68719
      61 <- 62         0.16576
 This state for optimization and/or second-order correction.
 Total Energy, E(TD-HF/TD-KS) =  -695.588507693    
 Copying the excited state density for this state as the 1-particle RhoCI density.
 
 Excited state symmetry could not be determined.
 Excited State   2:      Triplet-?Sym    3.7293 eV  332.46 nm  f=0.0000  <S**2>=2.000
      58 -> 62        -0.13078
      59 -> 62        -0.15939
      61 -> 63         0.58722
      61 -> 68        -0.13472
      61 -> 74        -0.10123
 
 Excited state symmetry could not be determined.
 Excited State   3:      Singlet-?Sym    3.8237 eV  324.25 nm  f=0.7576  <S**2>=0.000
      61 -> 62         0.69541
 
 Excited state symmetry could not be determined.
 Excited State   4:      Singlet-?Sym    4.3961 eV  282.03 nm  f=0.0061  <S**2>=0.000
      59 -> 62         0.10739
      60 -> 62         0.20185
      61 -> 63         0.64038
 SavETr:  write IOETrn=   770 NScale= 10 NData=  16 NLR=1 NState=    4 LETran=      82.
 Leave Link  914 at Tue Oct  3 18:57:44 2017, MaxMem=  3623878656 cpu:      4323.0
 (Enter /share/apps/gaussian/g09_D01/g09/l601.exe)
 Copying SCF densities to generalized density rwf, IOpCl= 0 IROHF=0.

 **********************************************************************

            Population analysis using the SCF density.

 **********************************************************************

 Alpha  occ. eigenvalues --  -19.28444 -10.35963 -10.34372 -10.30653 -10.30189
 Alpha  occ. eigenvalues --  -10.29937 -10.29567 -10.29203 -10.28991 -10.28881
 Alpha  occ. eigenvalues --  -10.28856 -10.28801 -10.28702 -10.28689 -10.28687
 Alpha  occ. eigenvalues --  -10.28641 -10.27667  -1.18066  -0.96687  -0.94377
 Alpha  occ. eigenvalues --   -0.91314  -0.87917  -0.86263  -0.84912  -0.84035
 Alpha  occ. eigenvalues --   -0.79963  -0.75759  -0.72341  -0.71040  -0.69156
 Alpha  occ. eigenvalues --   -0.67852  -0.66973  -0.63498  -0.61080  -0.58969
 Alpha  occ. eigenvalues --   -0.57883  -0.56488  -0.55417  -0.53239  -0.53024
 Alpha  occ. eigenvalues --   -0.52679  -0.52200  -0.50710  -0.50071  -0.49918
 Alpha  occ. eigenvalues --   -0.48408  -0.47454  -0.46992  -0.46350  -0.44226
 Alpha  occ. eigenvalues --   -0.44179  -0.43871  -0.43176  -0.42159  -0.41461
 Alpha  occ. eigenvalues --   -0.40541  -0.39440  -0.34644  -0.34146  -0.33335
 Alpha  occ. eigenvalues --   -0.25891
 Alpha virt. eigenvalues --    0.00619   0.04852   0.05626   0.06544   0.07009
 Alpha virt. eigenvalues --    0.07341   0.07584   0.07649   0.08057   0.08964
 Alpha virt. eigenvalues --    0.09560   0.09689   0.10395   0.10644   0.11039
 Alpha virt. eigenvalues --    0.11285   0.11683   0.11913   0.12209   0.13130
 Alpha virt. eigenvalues --    0.13420   0.13846   0.14449   0.14712   0.15003
 Alpha virt. eigenvalues --    0.16141   0.16212   0.16616   0.16899   0.17288
 Alpha virt. eigenvalues --    0.18350   0.18688   0.18928   0.19412   0.19630
 Alpha virt. eigenvalues --    0.19895   0.20649   0.20983   0.21366   0.21441
 Alpha virt. eigenvalues --    0.22010   0.22071   0.22863   0.22926   0.23332
 Alpha virt. eigenvalues --    0.23472   0.24054   0.24261   0.24484   0.24780
 Alpha virt. eigenvalues --    0.25015   0.25399   0.25591   0.26040   0.26260
 Alpha virt. eigenvalues --    0.26425   0.26772   0.27034   0.27116   0.27417
 Alpha virt. eigenvalues --    0.27962   0.28232   0.28585   0.28644   0.29463
 Alpha virt. eigenvalues --    0.29871   0.30245   0.30523   0.31292   0.31655
 Alpha virt. eigenvalues --    0.31911   0.32074   0.32780   0.33496   0.33651
 Alpha virt. eigenvalues --    0.33836   0.33973   0.34162   0.34619   0.35486
 Alpha virt. eigenvalues --    0.35653   0.36307   0.36734   0.37103   0.38205
 Alpha virt. eigenvalues --    0.38984   0.39291   0.39585   0.39982   0.40408
 Alpha virt. eigenvalues --    0.41015   0.41134   0.42083   0.42985   0.43608
 Alpha virt. eigenvalues --    0.44516   0.45551   0.46455   0.47777   0.49525
 Alpha virt. eigenvalues --    0.49678   0.49893   0.51447   0.52033   0.53231
 Alpha virt. eigenvalues --    0.54578   0.56182   0.57248   0.58254   0.58534
 Alpha virt. eigenvalues --    0.59358   0.60040   0.61137   0.61203   0.61426
 Alpha virt. eigenvalues --    0.62347   0.63506   0.63769   0.64147   0.64313
 Alpha virt. eigenvalues --    0.65209   0.66581   0.67176   0.67732   0.68155
 Alpha virt. eigenvalues --    0.68439   0.69237   0.70360   0.70550   0.71107
 Alpha virt. eigenvalues --    0.71647   0.72400   0.72578   0.73044   0.73518
 Alpha virt. eigenvalues --    0.74274   0.75641   0.76175   0.76420   0.76768
 Alpha virt. eigenvalues --    0.77458   0.77583   0.78493   0.79009   0.79370
 Alpha virt. eigenvalues --    0.80497   0.80961   0.81461   0.82009   0.82576
 Alpha virt. eigenvalues --    0.82803   0.83180   0.84043   0.84872   0.85450
 Alpha virt. eigenvalues --    0.87407   0.87569   0.89220   0.89968   0.92133
 Alpha virt. eigenvalues --    0.92433   0.93252   0.94263   0.94653   0.95696
 Alpha virt. eigenvalues --    0.96782   0.97858   0.98252   0.99711   1.01480
 Alpha virt. eigenvalues --    1.01760   1.02641   1.03096   1.04175   1.07152
 Alpha virt. eigenvalues --    1.08107   1.08294   1.08689   1.09533   1.10779
 Alpha virt. eigenvalues --    1.11300   1.11971   1.13365   1.15398   1.17556
 Alpha virt. eigenvalues --    1.18617   1.19413   1.20189   1.20586   1.21811
 Alpha virt. eigenvalues --    1.24371   1.25898   1.27802   1.28064   1.28844
 Alpha virt. eigenvalues --    1.29121   1.31260   1.32307   1.33435   1.33902
 Alpha virt. eigenvalues --    1.38243   1.40000   1.42919   1.44069   1.46844
 Alpha virt. eigenvalues --    1.49073   1.53278   1.55082   1.57736   1.58641
 Alpha virt. eigenvalues --    1.59793   1.60769   1.61210   1.61943   1.62694
 Alpha virt. eigenvalues --    1.63879   1.65128   1.66444   1.66622   1.70128
 Alpha virt. eigenvalues --    1.71236   1.73158   1.74834   1.77385   1.78227
 Alpha virt. eigenvalues --    1.79590   1.79994   1.81188   1.82663   1.84764
 Alpha virt. eigenvalues --    1.86913   1.87444   1.87921   1.89816   1.90481
 Alpha virt. eigenvalues --    1.91647   1.92151   1.93784   1.94455   1.95198
 Alpha virt. eigenvalues --    1.96654   1.96884   1.98172   2.00633   2.01681
 Alpha virt. eigenvalues --    2.02456   2.03507   2.04021   2.04537   2.07164
 Alpha virt. eigenvalues --    2.08490   2.13162   2.15370   2.18244   2.22705
 Alpha virt. eigenvalues --    2.26398   2.27037   2.27732   2.29974   2.35494
 Alpha virt. eigenvalues --    2.35679   2.36601   2.40239   2.42250   2.44742
 Alpha virt. eigenvalues --    2.46173   2.46552   2.46928   2.48373   2.51919
 Alpha virt. eigenvalues --    2.57064   2.58061   2.58934   2.59492   2.60488
 Alpha virt. eigenvalues --    2.62972   2.63331   2.66220   2.68604   2.69829
 Alpha virt. eigenvalues --    2.71639   2.73216   2.74656   2.75206   2.77449
 Alpha virt. eigenvalues --    2.80843   2.84880   2.85150   2.85745   2.89522
 Alpha virt. eigenvalues --    2.89913   2.91914   2.93327   2.97378   2.98377
 Alpha virt. eigenvalues --    3.02298   3.04402   3.06480   3.07352   3.08276
 Alpha virt. eigenvalues --    3.09628   3.10144   3.16449   3.16645   3.17764
 Alpha virt. eigenvalues --    3.20422   3.21537   3.22445   3.25761   3.30482
 Alpha virt. eigenvalues --    3.31503   3.32044   3.32934   3.33176   3.36750
 Alpha virt. eigenvalues --    3.39095   3.40011   3.43260   3.43816   3.46901
 Alpha virt. eigenvalues --    3.47321   3.48080   3.48798   3.50255   3.53226
 Alpha virt. eigenvalues --    3.59744   3.68412   3.72192   3.73140   3.74660
 Alpha virt. eigenvalues --    3.76698   3.77852   3.91712   3.95449   4.05839
 Alpha virt. eigenvalues --    4.10553   4.12155   4.17224   4.22859   4.27938
 Alpha virt. eigenvalues --    4.65929   4.81353   4.87965   5.16983   5.49273
 Alpha virt. eigenvalues --    5.88693  23.42964  23.58849  23.63478  23.75335
 Alpha virt. eigenvalues --   23.82085  23.84994  23.87753  23.87892  23.93331
 Alpha virt. eigenvalues --   24.04050  24.05655  24.18996  24.23234  24.24905
 Alpha virt. eigenvalues --   24.28050  24.30291  50.10020
          Condensed to atoms (all electrons):
               1          2          3          4          5          6
     1  C    7.514448  -1.843066   1.266797  -0.865498   0.862587  -1.186013
     2  C   -1.843066  16.694451  -7.223681   1.382485  -1.140531  -1.137549
     3  C    1.266797  -7.223681  13.692848  -0.705048   1.776350  -1.526461
     4  C   -0.865498   1.382485  -0.705048   6.046187   0.189586   0.407718
     5  C    0.862587  -1.140531   1.776350   0.189586  10.102958  -3.782241
     6  C   -1.186013  -1.137549  -1.526461   0.407718  -3.782241  13.577086
     7  H    0.028371   0.368474  -0.143189  -0.014035  -0.010651  -0.017035
     8  H    0.013031   0.014308   0.283173   0.030437  -0.022399   0.005147
     9  H    0.057501  -0.116167   0.100122   0.269390   0.072188  -0.057909
    10  H   -0.002333   0.033449  -0.045706   0.064614   0.302904  -0.019445
    11  H    0.037765  -0.038754   0.004413  -0.030821  -0.107304   0.306657
    12  C    1.709974  -0.670363   0.213804  -0.347658  -0.159927  -0.687605
    13  C   -0.295474  -2.423932  -0.267636  -0.029242  -1.098563   2.969576
    14  C   -0.617035  -0.376632   0.263207  -0.096600   0.455938  -0.253305
    15  C   -0.617090  -0.113738  -0.131112   0.006810  -0.295727  -0.075370
    16  C   -0.495018  -0.069256   0.572730  -0.065049  -0.005654  -0.533241
    17  C   -0.496985   2.690095  -1.346448   0.082941  -0.493554  -1.844016
    18  H    0.074815   0.025566   0.007669  -0.001468   0.050441   0.004748
    19  H   -0.004585  -0.000438   0.000088   0.000102  -0.000786   0.005980
    20  O   -0.002418  -0.000548   0.000519  -0.000050   0.000383  -0.001489
    21  H    0.006148   0.006774  -0.001279   0.000283  -0.000251   0.001115
    22  H    0.051043   0.005004   0.053629  -0.004262   0.010448   0.012616
    23  C   -0.011093  -0.002208   0.001777  -0.000222  -0.002171  -0.009746
    24  H   -0.000092   0.000025   0.000002   0.000000   0.000006   0.000081
    25  H    0.000773  -0.001173  -0.000114   0.000002  -0.000054  -0.000341
    26  C    0.013966  -0.003477  -0.001329   0.000123  -0.001377  -0.000892
    27  C   -0.001273   0.000228   0.000057  -0.000013   0.000098  -0.000069
    28  H   -0.000685   0.001263   0.000229  -0.000010   0.000069   0.000173
    29  H    0.000273  -0.000185  -0.000016   0.000001  -0.000008  -0.000033
    30  C   -0.000012  -0.000355  -0.000131   0.000002  -0.000032  -0.000167
    31  H    0.000006   0.000006   0.000000   0.000000   0.000000   0.000004
    32  H    0.000040  -0.000108  -0.000009   0.000000  -0.000001  -0.000014
    33  H   -0.000001   0.000000   0.000000   0.000000   0.000000   0.000000
    34  H    0.000001   0.000013   0.000002   0.000000   0.000001   0.000005
    35  H    0.000004  -0.000004   0.000000   0.000000   0.000000  -0.000001
               7          8          9         10         11         12
     1  C    0.028371   0.013031   0.057501  -0.002333   0.037765   1.709974
     2  C    0.368474   0.014308  -0.116167   0.033449  -0.038754  -0.670363
     3  C   -0.143189   0.283173   0.100122  -0.045706   0.004413   0.213804
     4  C   -0.014035   0.030437   0.269390   0.064614  -0.030821  -0.347658
     5  C   -0.010651  -0.022399   0.072188   0.302904  -0.107304  -0.159927
     6  C   -0.017035   0.005147  -0.057909  -0.019445   0.306657  -0.687605
     7  H    0.460247  -0.005455  -0.000252   0.000070  -0.000087   0.044429
     8  H   -0.005455   0.442601  -0.004415  -0.000194   0.000065  -0.003342
     9  H   -0.000252  -0.004415   0.437478  -0.004407  -0.000230   0.002658
    10  H    0.000070  -0.000194  -0.004407   0.442033  -0.005612  -0.007117
    11  H   -0.000087   0.000065  -0.000230  -0.005612   0.458036   0.056942
    12  C    0.044429  -0.003342   0.002658  -0.007117   0.056942   8.670841
    13  C    0.012775  -0.000532   0.001739   0.003583   0.042570  -1.378230
    14  C    0.001582  -0.000414   0.000468  -0.000753   0.010019   1.311014
    15  C   -0.003048   0.000256  -0.000020   0.000134   0.001147  -1.941015
    16  C   -0.012656   0.000433   0.000272  -0.000508   0.003663  -0.771227
    17  C    0.045713   0.008216   0.000276   0.000013   0.016460  -0.880493
    18  H   -0.000064   0.000000  -0.000001  -0.000018   0.003269   0.101061
    19  H    0.000001   0.000000   0.000000   0.000000  -0.000016   0.015104
    20  O   -0.000007   0.000000   0.000000   0.000000   0.000002  -0.068190
    21  H   -0.000014   0.000000   0.000000   0.000000   0.000001   0.037534
    22  H    0.003394  -0.000029  -0.000001   0.000000  -0.000067   0.092184
    23  C   -0.000103   0.000000   0.000000  -0.000001   0.000051  -0.136625
    24  H    0.000000   0.000000   0.000000   0.000000   0.000000   0.004515
    25  H    0.000000   0.000000   0.000000   0.000000   0.000000  -0.019316
    26  C    0.000052   0.000000   0.000000   0.000000   0.000008  -0.066852
    27  C   -0.000002   0.000000   0.000000   0.000000   0.000001  -0.007296
    28  H   -0.000001   0.000000   0.000000   0.000000   0.000000   0.010217
    29  H    0.000000   0.000000   0.000000   0.000000   0.000000  -0.003476
    30  C    0.000001   0.000000   0.000000   0.000000   0.000000  -0.006448
    31  H    0.000000   0.000000   0.000000   0.000000   0.000000   0.000605
    32  H    0.000000   0.000000   0.000000   0.000000   0.000000  -0.001827
    33  H    0.000000   0.000000   0.000000   0.000000   0.000000   0.000007
    34  H    0.000000   0.000000   0.000000   0.000000   0.000000   0.000369
    35  H    0.000000   0.000000   0.000000   0.000000   0.000000  -0.000101
              13         14         15         16         17         18
     1  C   -0.295474  -0.617035  -0.617090  -0.495018  -0.496985   0.074815
     2  C   -2.423932  -0.376632  -0.113738  -0.069256   2.690095   0.025566
     3  C   -0.267636   0.263207  -0.131112   0.572730  -1.346448   0.007669
     4  C   -0.029242  -0.096600   0.006810  -0.065049   0.082941  -0.001468
     5  C   -1.098563   0.455938  -0.295727  -0.005654  -0.493554   0.050441
     6  C    2.969576  -0.253305  -0.075370  -0.533241  -1.844016   0.004748
     7  H    0.012775   0.001582  -0.003048  -0.012656   0.045713  -0.000064
     8  H   -0.000532  -0.000414   0.000256   0.000433   0.008216   0.000000
     9  H    0.001739   0.000468  -0.000020   0.000272   0.000276  -0.000001
    10  H    0.003583  -0.000753   0.000134  -0.000508   0.000013  -0.000018
    11  H    0.042570   0.010019   0.001147   0.003663   0.016460   0.003269
    12  C   -1.378230   1.311014  -1.941015  -0.771227  -0.880493   0.101061
    13  C   11.247517  -1.284808   0.226304  -0.685118  -0.716165   0.224932
    14  C   -1.284808  11.848484  -0.859340  -1.959095  -1.682621  -0.051717
    15  C    0.226304  -0.859340  10.304615   0.184762  -0.323750  -0.086652
    16  C   -0.685118  -1.959095   0.184762   8.759543   0.776850  -0.009536
    17  C   -0.716165  -1.682621  -0.323750   0.776850  10.441995  -0.033873
    18  H    0.224932  -0.051717  -0.086652  -0.009536  -0.033873   0.451081
    19  H   -0.044035   0.364915   0.026856  -0.009483  -0.015243  -0.005149
    20  O   -0.077234  -0.498509   0.523115   0.064671   0.014274  -0.001114
    21  H   -0.001761  -0.032343  -0.051635   0.362788   0.005546   0.000067
    22  H   -0.036180   0.010687  -0.044218  -0.062975   0.217546  -0.000089
    23  C   -0.024230  -0.142778  -0.013914  -0.066965  -0.016882  -0.000589
    24  H    0.000790   0.030150   0.054784  -0.036962  -0.004581  -0.000001
    25  H   -0.004996  -0.094817  -0.192645   0.211570   0.052478  -0.000003
    26  C    0.068808   0.022357  -0.205007   0.108356   0.041940  -0.000508
    27  C    0.011064   0.069430   0.030019  -0.102531  -0.036217  -0.000012
    28  H   -0.002797   0.033983   0.016575  -0.039479  -0.012562  -0.000001
    29  H   -0.002265  -0.039751  -0.044875   0.061445   0.009587   0.000000
    30  C    0.002900   0.017943  -0.000505  -0.020437  -0.011283  -0.000003
    31  H    0.000042   0.001528   0.005001  -0.001464   0.000959   0.000000
    32  H   -0.000002  -0.004959  -0.017051   0.014616   0.002396   0.000000
    33  H   -0.000013  -0.000172  -0.000070   0.000294   0.000068   0.000000
    34  H   -0.000064   0.000006  -0.003139   0.000141   0.000773   0.000000
    35  H    0.000027  -0.000312   0.000324   0.000980   0.000052   0.000000
              19         20         21         22         23         24
     1  C   -0.004585  -0.002418   0.006148   0.051043  -0.011093  -0.000092
     2  C   -0.000438  -0.000548   0.006774   0.005004  -0.002208   0.000025
     3  C    0.000088   0.000519  -0.001279   0.053629   0.001777   0.000002
     4  C    0.000102  -0.000050   0.000283  -0.004262  -0.000222   0.000000
     5  C   -0.000786   0.000383  -0.000251   0.010448  -0.002171   0.000006
     6  C    0.005980  -0.001489   0.001115   0.012616  -0.009746   0.000081
     7  H    0.000001  -0.000007  -0.000014   0.003394  -0.000103   0.000000
     8  H    0.000000   0.000000   0.000000  -0.000029   0.000000   0.000000
     9  H    0.000000   0.000000   0.000000  -0.000001   0.000000   0.000000
    10  H    0.000000   0.000000   0.000000   0.000000  -0.000001   0.000000
    11  H   -0.000016   0.000002   0.000001  -0.000067   0.000051   0.000000
    12  C    0.015104  -0.068190   0.037534   0.092184  -0.136625   0.004515
    13  C   -0.044035  -0.077234  -0.001761  -0.036180  -0.024230   0.000790
    14  C    0.364915  -0.498509  -0.032343   0.010687  -0.142778   0.030150
    15  C    0.026856   0.523115  -0.051635  -0.044218  -0.013914   0.054784
    16  C   -0.009483   0.064671   0.362788  -0.062975  -0.066965  -0.036962
    17  C   -0.015243   0.014274   0.005546   0.217546  -0.016882  -0.004581
    18  H   -0.005149  -0.001114   0.000067  -0.000089  -0.000589  -0.000001
    19  H    0.422997  -0.001240  -0.000106   0.000051  -0.004898  -0.000069
    20  O   -0.001240   8.029043  -0.005987  -0.000240   0.238326  -0.102762
    21  H   -0.000106  -0.005987   0.440266  -0.005363  -0.009490   0.000169
    22  H    0.000051  -0.000240  -0.005363   0.453108  -0.001207   0.000000
    23  C   -0.004898   0.238326  -0.009490  -0.001207   6.910576   0.413892
    24  H   -0.000069  -0.102762   0.000169   0.000000   0.413892   0.440727
    25  H    0.000099   0.000990  -0.002442   0.000037   0.320482  -0.033842
    26  C    0.002217  -0.121203   0.012602   0.001496  -0.907369  -0.028822
    27  C   -0.000061  -0.011177  -0.009639  -0.000155   0.409868  -0.011136
    28  H   -0.000033  -0.013307  -0.003558   0.000042  -0.013128   0.003879
    29  H    0.000015   0.009970   0.000233  -0.000004  -0.059826  -0.006101
    30  C   -0.000013  -0.000189  -0.000568   0.000016  -0.263604   0.001726
    31  H    0.000000  -0.002243  -0.000055   0.000000  -0.002353   0.002557
    32  H    0.000000   0.000734   0.000372  -0.000006  -0.006631  -0.000194
    33  H    0.000000   0.000052  -0.000002   0.000000   0.006467  -0.000014
    34  H    0.000000  -0.000080  -0.000074   0.000001   0.003778  -0.000023
    35  H    0.000000   0.000009   0.000014   0.000000   0.000934   0.000056
              25         26         27         28         29         30
     1  C    0.000773   0.013966  -0.001273  -0.000685   0.000273  -0.000012
     2  C   -0.001173  -0.003477   0.000228   0.001263  -0.000185  -0.000355
     3  C   -0.000114  -0.001329   0.000057   0.000229  -0.000016  -0.000131
     4  C    0.000002   0.000123  -0.000013  -0.000010   0.000001   0.000002
     5  C   -0.000054  -0.001377   0.000098   0.000069  -0.000008  -0.000032
     6  C   -0.000341  -0.000892  -0.000069   0.000173  -0.000033  -0.000167
     7  H    0.000000   0.000052  -0.000002  -0.000001   0.000000   0.000001
     8  H    0.000000   0.000000   0.000000   0.000000   0.000000   0.000000
     9  H    0.000000   0.000000   0.000000   0.000000   0.000000   0.000000
    10  H    0.000000   0.000000   0.000000   0.000000   0.000000   0.000000
    11  H    0.000000   0.000008   0.000001   0.000000   0.000000   0.000000
    12  C   -0.019316  -0.066852  -0.007296   0.010217  -0.003476  -0.006448
    13  C   -0.004996   0.068808   0.011064  -0.002797  -0.002265   0.002900
    14  C   -0.094817   0.022357   0.069430   0.033983  -0.039751   0.017943
    15  C   -0.192645  -0.205007   0.030019   0.016575  -0.044875  -0.000505
    16  C    0.211570   0.108356  -0.102531  -0.039479   0.061445  -0.020437
    17  C    0.052478   0.041940  -0.036217  -0.012562   0.009587  -0.011283
    18  H   -0.000003  -0.000508  -0.000012  -0.000001   0.000000  -0.000003
    19  H    0.000099   0.002217  -0.000061  -0.000033   0.000015  -0.000013
    20  O    0.000990  -0.121203  -0.011177  -0.013307   0.009970  -0.000189
    21  H   -0.002442   0.012602  -0.009639  -0.003558   0.000233  -0.000568
    22  H    0.000037   0.001496  -0.000155   0.000042  -0.000004   0.000016
    23  C    0.320482  -0.907369   0.409868  -0.013128  -0.059826  -0.263604
    24  H   -0.033842  -0.028822  -0.011136   0.003879  -0.006101   0.001726
    25  H    0.480513   0.069294  -0.052115  -0.008558   0.004574   0.008992
    26  C    0.069294   7.170970  -0.897349   0.420339   0.466770   0.255366
    27  C   -0.052115  -0.897349   6.526491  -0.050997  -0.060668  -0.255397
    28  H   -0.008558   0.420339  -0.050997   0.428304  -0.036506  -0.011463
    29  H    0.004574   0.466770  -0.060668  -0.036506   0.433969   0.001717
    30  C    0.008992   0.255366  -0.255397  -0.011463   0.001717   6.261718
    31  H   -0.000458  -0.063097   0.446655   0.005000  -0.007146  -0.055236
    32  H    0.003750  -0.032742   0.409262  -0.007764   0.005732  -0.039500
    33  H   -0.000015   0.061890  -0.086647  -0.000209  -0.000169   0.367521
    34  H    0.000026  -0.051696   0.016106   0.002582  -0.000505   0.380049
    35  H   -0.000004  -0.030371  -0.006582   0.000041   0.003771   0.377813
              31         32         33         34         35
     1  C    0.000006   0.000040  -0.000001   0.000001   0.000004
     2  C    0.000006  -0.000108   0.000000   0.000013  -0.000004
     3  C    0.000000  -0.000009   0.000000   0.000002   0.000000
     4  C    0.000000   0.000000   0.000000   0.000000   0.000000
     5  C    0.000000  -0.000001   0.000000   0.000001   0.000000
     6  C    0.000004  -0.000014   0.000000   0.000005  -0.000001
     7  H    0.000000   0.000000   0.000000   0.000000   0.000000
     8  H    0.000000   0.000000   0.000000   0.000000   0.000000
     9  H    0.000000   0.000000   0.000000   0.000000   0.000000
    10  H    0.000000   0.000000   0.000000   0.000000   0.000000
    11  H    0.000000   0.000000   0.000000   0.000000   0.000000
    12  C    0.000605  -0.001827   0.000007   0.000369  -0.000101
    13  C    0.000042  -0.000002  -0.000013  -0.000064   0.000027
    14  C    0.001528  -0.004959  -0.000172   0.000006  -0.000312
    15  C    0.005001  -0.017051  -0.000070  -0.003139   0.000324
    16  C   -0.001464   0.014616   0.000294   0.000141   0.000980
    17  C    0.000959   0.002396   0.000068   0.000773   0.000052
    18  H    0.000000   0.000000   0.000000   0.000000   0.000000
    19  H    0.000000   0.000000   0.000000   0.000000   0.000000
    20  O   -0.002243   0.000734   0.000052  -0.000080   0.000009
    21  H   -0.000055   0.000372  -0.000002  -0.000074   0.000014
    22  H    0.000000  -0.000006   0.000000   0.000001   0.000000
    23  C   -0.002353  -0.006631   0.006467   0.003778   0.000934
    24  H    0.002557  -0.000194  -0.000014  -0.000023   0.000056
    25  H   -0.000458   0.003750  -0.000015   0.000026  -0.000004
    26  C   -0.063097  -0.032742   0.061890  -0.051696  -0.030371
    27  C    0.446655   0.409262  -0.086647   0.016106  -0.006582
    28  H    0.005000  -0.007764  -0.000209   0.002582   0.000041
    29  H   -0.007146   0.005732  -0.000169  -0.000505   0.003771
    30  C   -0.055236  -0.039500   0.367521   0.380049   0.377813
    31  H    0.465281  -0.042801  -0.003372   0.005505  -0.007127
    32  H   -0.042801   0.474654  -0.003403  -0.008228   0.006054
    33  H   -0.003372  -0.003403   0.441741  -0.024012  -0.023450
    34  H    0.005505  -0.008228  -0.024012   0.453889  -0.034139
    35  H   -0.007127   0.006054  -0.023450  -0.034139   0.451940
 Mulliken charges:
               1
     1  C    0.801131
     2  C   -0.059977
     3  C   -0.845258
     4  C   -0.320708
     5  C   -0.702728
     6  C   -0.157967
     7  H    0.241489
     8  H    0.239112
     9  H    0.241307
    10  H    0.239293
    11  H    0.241820
    12  C    0.885849
    13  C   -0.439351
    14  C   -0.445749
    15  C   -0.360783
    16  C   -0.176464
    17  C   -0.493508
    18  H    0.247146
    19  H    0.247728
    20  O    0.025899
    21  H    0.250656
    22  H    0.243496
    23  C   -0.610119
    24  H    0.271240
    25  H    0.257312
    26  C   -0.304463
    27  C   -0.329944
    28  H    0.278363
    29  H    0.263481
    30  C   -1.010425
    31  H    0.252202
    32  H    0.247629
    33  H    0.263508
    34  H    0.258713
    35  H    0.260069
 Sum of Mulliken charges =   0.00000
 Mulliken charges with hydrogens summed into heavy atoms:
               1
     1  C    0.801131
     2  C    0.181512
     3  C   -0.606145
     4  C   -0.079401
     5  C   -0.463435
     6  C    0.083853
    12  C    0.885849
    13  C   -0.192205
    14  C   -0.198021
    15  C   -0.360783
    16  C    0.074192
    17  C   -0.250012
    20  O    0.025899
    23  C   -0.081567
    26  C    0.237381
    27  C    0.169887
    30  C   -0.228135
 Electronic spatial extent (au):  <R**2>=           9609.8629
 Charge=              0.0000 electrons
 Dipole moment (field-independent basis, Debye):
    X=             -1.9910    Y=              0.3121    Z=              0.9727  Tot=              2.2377
 Quadrupole moment (field-independent basis, Debye-Ang):
   XX=            -79.0466   YY=           -109.1151   ZZ=            -95.7134
   XY=             -1.8629   XZ=             -6.1934   YZ=             -2.6565
 Traceless Quadrupole moment (field-independent basis, Debye-Ang):
   XX=             15.5784   YY=            -14.4901   ZZ=             -1.0884
   XY=             -1.8629   XZ=             -6.1934   YZ=             -2.6565
 Octapole moment (field-independent basis, Debye-Ang**2):
  XXX=            585.7102  YYY=            -89.5924  ZZZ=            -13.3311  XYY=            238.9587
  XXY=            -16.8290  XXZ=             20.3402  XZZ=            249.9510  YZZ=            -31.7125
  YYZ=             -6.7031  XYZ=              1.0179
 Hexadecapole moment (field-independent basis, Debye-Ang**3):
 XXXX=         -10196.9689 YYYY=           -675.9724 ZZZZ=           -988.1362 XXXY=            778.4577
 XXXZ=            -93.5995 YYYX=            900.9300 YYYZ=            -76.6767 ZZZX=            -15.8085
 ZZZY=            -95.1732 XXYY=          -2053.5569 XXZZ=          -2090.3219 YYZZ=           -299.6826
 XXYZ=            -46.2982 YYXZ=             -2.8344 ZZXY=            291.2477
 N-N= 1.074131713733D+03 E-N=-3.764048644363D+03  KE= 6.924213867377D+02
 Leave Link  601 at Tue Oct  3 18:57:44 2017, MaxMem=  3623878656 cpu:         0.2
 (Enter /share/apps/gaussian/g09_D01/g09/l9999.exe)
 1\1\GINC-NXN33\SP\RwB97XD TD-FC\6-311+G(d)\C16H18O1\BTX008\03-Oct-2017
 \0\\#p wb97xd 6-311+G(d) nosymm td=(nstates=2,50-50) geom=check guess=
 read\\m1 tddft singlets and triplets\\0,1\C,0,0.2987886971,-0.13711673
 55,0.1641375348\C,0,0.6986827195,-0.3634248353,1.5536027204\C,0,2.0144
 153425,-0.4224968094,1.9221697432\C,0,3.0488042378,-0.2650077822,0.971
 0382821\C,0,2.7068296968,-0.0415391768,-0.3849354065\C,0,1.4015299738,
 0.0216432434,-0.7839155162\H,0,-0.0570203362,-0.4914307033,2.317408892
 4\H,0,2.2680593575,-0.5942799404,2.9636481204\H,0,4.0881346024,-0.3159
 828029,1.2745368766\H,0,3.495501176,0.0808860312,-1.1207917919\H,0,1.1
 909220821,0.1948916762,-1.8311567632\C,0,-1.0328764505,-0.0792840314,-
 0.2255487432\C,0,-1.4442788412,0.1361016341,-1.6181429755\C,0,-2.74935
 6376,0.1765713692,-1.9829156281\C,0,-3.7965620327,0.0157178478,-1.0240
 444832\C,0,-3.4552571207,-0.1879616135,0.3339276395\C,0,-2.1463594403,
 -0.2328201324,0.7267937633\H,0,-0.6938810108,0.2653768491,-2.386446029
 1\H,0,-3.0319546333,0.3339127435,-3.0184416732\O,0,-5.0509459887,0.048
 8304416,-1.5297654723\H,0,-4.2256807599,-0.308147408,1.0868239217\H,0,
 -1.9383051556,-0.3859614512,1.7767580778\C,0,-6.1658823838,0.037683558
 9,-0.6502428923\H,0,-7.0147521257,-0.2111080603,-1.2901703796\H,0,-6.0
 641858518,-0.7723317508,0.0819228958\C,0,-6.3907413909,1.3803667371,0.
 0291389571\C,0,-7.6087248495,1.357925652,0.9497594\H,0,-5.4999783842,1
 .6647412048,0.5998414\H,0,-6.5172384023,2.1448926734,-0.7453503451\C,0
 ,-7.8590765726,2.7052026474,1.6196320336\H,0,-8.4966713967,1.062896900
 2,0.3774138628\H,0,-7.473215643,0.5871542557,1.7185916624\H,0,-8.73062
 51465,2.6685490164,2.2782687447\H,0,-6.9992389167,3.0122185467,2.22275
 02978\H,0,-8.0365146756,3.4882092049,0.8763112731\\Version=ES64L-G09Re
 vD.01\HF=-695.6611582\RMSD=6.350e-09\PG=C01 [X(C16H18O1)]\\@


 The impersonal hand of government can
 never replace the helping hand of a neighbor.
                        -- Hubert H. Humphrey
 Job cpu time:       0 days  1 hours 13 minutes 25.7 seconds.
 File lengths (MBytes):  RWF=    314 Int=      0 D2E=      0 Chk=     48 Scr=      1
 Normal termination of Gaussian 09 at Tue Oct  3 18:57:44 2017.
