 hostname is         sm0
 this is node-proc. number 0 running on node sm0
 the total number of node-proc. spawned is   1

   OpenMP run-time library returned nthreads =  2

 ricc2 (sm0) : TURBOMOLE V7.0( 19819 ) 16 Jun 2015 at 16:30:15
 Copyright (C) 2015 TURBOMOLE GmbH, Karlsruhe


    2017-10-05 15:19:05.233 



                              R I C C 2 - PROGRAM

                          the quantum chemistry groups
                             at the universities in
                           Karlsruhe, Bochum & Mainz
                                   Germany



   *-----------------------------------------------------------------------*
   |                     program will use  2 thread(s)                     |
   *-----------------------------------------------------------------------*


              +--------------------------------------------------+
              | Atomic coordinate, charge and isotop information |
              +--------------------------------------------------+

                    atomic coordinates            atom    charge  isotop
          3.02659858   -0.21881105    0.59148077    c      6.000     0
          3.63283497    0.00420151    3.19727718    c      6.000     0
          6.13779831   -0.18157723    4.01484295    c      6.000     0
          8.07794885   -0.62783081    2.27386338    c      6.000     0
          7.51941074   -0.87322753   -0.30418642    c      6.000     0
          5.02618250   -0.65811647   -1.14042235    c      6.000     0
          2.16208322    0.42796809    4.55334549    h      1.000     0
          6.57470628    0.01223126    6.00821415    h      1.000     0
         10.01749768   -0.78546300    2.92081525    h      1.000     0
          9.02107670   -1.22547106   -1.65366227    h      1.000     0
          4.61090074   -0.92140936   -3.12591907    h      1.000     0
          0.45661866   -0.01487054   -0.26059327    c      6.000     0
         -0.10588381    0.20043177   -2.89090868    c      6.000     0
         -2.62828707    0.43521367   -3.72312948    c      6.000     0
         -4.60061942    0.40342788   -1.91381159    c      6.000     0
         -4.11537614    0.16698782    0.70976249    c      6.000     0
         -1.57637409   -0.01164923    1.53609223    c      6.000     0
          1.41002728    0.35352110   -4.25349415    h      1.000     0
         -3.11034741    0.63261644   -5.70281532    h      1.000     0
         -6.94493358    0.61561053   -2.89635185    o      8.000     0
         -5.63461516    0.13200225    2.07621793    h      1.000     0
         -1.19840617   -0.35559778    3.51474777    h      1.000     0
         -9.03828307    0.61925764   -1.17614259    c      6.000     0
        -10.70846080    0.81133675   -2.35625056    h      1.000     0
         -9.11189983   -1.15399533   -0.12477381    h      1.000     0
         -8.90019796    2.21321268    0.12580183    h      1.000     0
 
       center of nuclear mass  :    0.14036767    0.00490821   -0.18108001
       center of nuclear charge:    0.10661541    0.00537205   -0.16024326

              +--------------------------------------------------+
              |               basis set information              |
              +--------------------------------------------------+

              we will work with the 1s 3p 5d 7f 9g ... basis set
              ...i.e. with spherical basis functions...

   type   atoms  prim   cont   basis
   ---------------------------------------------------------------------------
    c       13     46     31   def2-TZVP   [5s3p2d1f|11s6p2d1f]
    h       12      8      6   def2-TZVP   [3s1p|5s1p]
    o        1     46     31   def2-TZVP   [5s3p2d1f|11s6p2d1f]
   ---------------------------------------------------------------------------
   total:   26    740    506
   ---------------------------------------------------------------------------

   total number of primitive shells          :   46
   total number of contracted shells         :  202
   total number of cartesian basis functions :  576
   total number of SCF-basis functions       :  506



   =========================================================================


     restricted closed shell calculation for the wavefunction models:
               CC2        - Approximate CC Singles and Doubles


     global parameters for ricc2 program:

        hard restart (reuse of interm.) :  disabled
        soft restart (reuse of vectors) :  disabled
        threshold for vector function   :    0.100000E-05
        convergence threshold energy    :    0.100000E-06
        linear dependence threshold     :    0.100000E-13
        global print level              :      1
        maximum number of iterations    :    30
        maximum number DIIS vectors     :    10
        max. dim. of reduced space      :   100
        core memory limit (MB)          :   500


   =========================================================================
     "cartesian on" in $drvopt is ignored by $ricc2

    der. integral neglect threshold  :  0.10E-07
    integral neglect threshold       :  0.58E-11
    integral storage threshold THIZE :  0.10E-04
    integral storage threshold THIME :         5


                  +------------------------------------------+
                  |     Auxiliary basis set information      |
                  +------------------------------------------+

              we will work with the 1s 3p 5d 7f 9g ... basis set
              ...i.e. with spherical basis functions...

   type   atoms  prim   cont   basis
   ---------------------------------------------------------------------------
    c       13     81     76   def2-TZVP   [8s6p4d3f1g|8s6p5d3f1g]
    h       12     23     15   def2-TZVP   [4s2p1d|4s3p2d]
    o        1     81     76   def2-TZVP   [8s6p4d3f1g|8s6p5d3f1g]
   ---------------------------------------------------------------------------
   total:   26   1410   1244
   ---------------------------------------------------------------------------

   total number of primitive shells          :   55
   total number of contracted shells         :  392
   total number of cartesian basis functions : 1522
   total number of SCF-basis functions       : 1244


 symmetry group of the molecule :   c1 

 the group has the following generators :
   c1(z)

    1 symmetry operations found

 there are 1 real representations :   a   

 maximum number of shells which are related by symmetry :  1


 The symmetry information takes   1 MB

*---------------------------------------------------------------------*
|               simplified C1 algorithm will be applied               |
*---------------------------------------------------------------------*
  MOs are in ASCII format !


 reading orbital data $scfmo  from file mos . 

 orbital characterization : scfconv=7
 

         --------------------------------------------------------------
                   checking mo's by calculating trace(D*S)

              number of electrons : 
                 from trace(D*S)         :   98.000000000005
                 from occupation numbers :   98.000000000000

              molecular charge           :    0.000000000000
         --------------------------------------------------------------

 time elapsed for calculating density matrices :   0.061 sec



              +--------------------------------------------+
              | list of orbitals that will be kept frozen: |
              +--------------------------------------------+
              |   irrep   index      energy     occ/vir    |
              +--------------------------------------------+
              |   a         1      -20.5848     occupied   |
              |   a         2      -11.3052     occupied   |
              |   a         3      -11.2874     occupied   |
              |   a         4      -11.2480     occupied   |
              |   a         5      -11.2454     occupied   |
              |   a         6      -11.2442     occupied   |
              |   a         7      -11.2399     occupied   |
              |   a         8      -11.2382     occupied   |
              |   a         9      -11.2342     occupied   |
              |   a        10      -11.2341     occupied   |
              |   a        11      -11.2336     occupied   |
              |   a        12      -11.2309     occupied   |
              |   a        13      -11.2305     occupied   |
              |   a        14      -11.2290     occupied   |
              +--------------------------------------------+



   Molecular Orbital Statistic:
   ============================

   -----------------------------
   orbitals in total:
   -----------------------------
    frozen occupied :     14
    active occupied :     35
    active virtual  :    457
    frozen virtual  :      0
    all together    :    506
   -----------------------------


     time in riccmos       cpu:  0.70 sec    wall:  1.40 sec    ratio:  0.5

     total memory allocated for calculation of (Q|P)**(-1/2) : 18 MiB


     calculation of (P|Q) ...
     time in lp2sym        cpu:  0.12 sec    wall:  0.22 sec    ratio:  0.5


     calculation of the Cholesky decomposition of (P|Q)**(-1) ...
     time in invmetri      cpu:  1.19 sec    wall:  1.60 sec    ratio:  0.7

   threshold for RMS(d[D]) in SCF was     :  0.10E-06
   integral neglect threshold             :  0.58E-11
   derivative integral neglect threshold  :  0.10E-07


 setting up bound for integral derivative estimation

 increment for numerical differentiation : 0.00050000

   =========================================================================

     Energy of reference wave function is  -574.3166983898000
     Maximum orbital residual is           0.3477049210579E-05


     Number of symmetry-nonredundant auxiliary basis functions:     1244

     Block lengths for integral files:
        frozen occupied (BOI):        1 MiB
        active occupied (BJI):        1 MiB
        active virtual  (BAI):        5 MiB
        frozen virtual  (BGI):        0 MiB
               general  (BTI):        5 MiB

   =========================================================================




   **************************************************************************
   *                                                                        *
   *          OPTIMIZATION OF THE GROUND STATE CLUSTER AMPLITUDES           *
   *                                                                        *
   **************************************************************************
     start CC2 from scratch because restart not enabled


   Iter.   MP2 energy       Norm(Omega)    Norm(t1)  Norm(t2)     cpu    wall
   ...........................................................................
    1   -576.5826305609    0.1495693521     0.00000   0.52202    3.53    3.01
   ...........................................................................
     time in total         cpu:  3 min 33 s  wall:  3 min  2 s  ratio:  1.2


              *****************************************************
              *                                                   *
              *   RHF  energy           :   -574.3166983898       *
              *   correlation energy    :     -2.2659321711       *
              *                                                   *
              *   Final MP2 energy      :   -576.5826305609       *
              *   D1 diagnostic         :      0.0327             *
              *                                                   *
              *****************************************************



   Iter.   CC2 energy       Norm(Omega)    Norm(t1)  Norm(t2)     cpu    wall
   ...........................................................................
    1   -576.6030856877    0.0297590953     0.08496   0.52797    4.12    3.64
    2   -576.6087287784    0.0042995863     0.11338   0.52987    4.08    3.52
    3   -576.6093359663    0.0010170540     0.11871   0.53012    4.08    3.45
    4   -576.6093108851    0.0001969125     0.11924   0.53013    4.03    3.49
    5   -576.6093179203    0.0000436824     0.11933   0.53013    4.09    3.53
    6   -576.6093180423    0.0000113160     0.11932   0.53013    4.04    3.53
    7   -576.6093181368    0.0000026737     0.11933   0.53013    4.06    3.57
    8   -576.6093180893    0.0000006468     0.11933   0.53013    4.04    3.77
   ...........................................................................
   CC equations converged in  8 iterations.

   last energy change         :  0.48E-07
   convergence threshold      :  0.10E-06
   norm of the vector function:  0.65E-06
   convergence threshold      :  0.10E-05

     time in total         cpu: 32 min 34 s  wall: 28 min 31 s  ratio:  1.1


     **********************************************************************
     *                                                                    *
     *   RHF  energy                             :   -574.3166983898      *
     *   correlation energy                      :     -2.2926196995      *
     *                                                                    *
     *   Final CC2 energy                        :   -576.6093180893      *
     *                                                                    *
     *   D1 diagnostic                           :      0.0558            *
     *                                                                    *
     **********************************************************************



 **************************************************************
 *                                                            *
 *    OPTIMIZATION OF THE EXCITED STATE CLUSTER AMPLITUDES    *
 *                                                            *
 **************************************************************


  preoptimize excitation energies/vectors using CCS:
  ==================================================


 ======== LINEAR CC RESPONSE SOLVER ========

    threshold for convergence: 0.10E-02
    maximum number of simultaneous jacoby matrix transformations:  1
                                                
     summary of start vectors generation:
     -------------------------------------------
     type of solution vectors      : RE0
     symmetry                      : a  
     number of vectors requested   :     1
     number of vectors generated   :     1
     -------------------------------------------
                                                

    Iter  #Vectors  time (min)    max. residual 
    --------------------------------------------
      1       1         0.64     0.13E+00  (  1)
      2       1         0.73     0.54E-01  (  1)
      3       1         0.70     0.21E-01  (  1)
      4       1         0.69     0.12E-01  (  1)
      5       1         0.72     0.45E-02  (  1)
      6       1         0.73     0.15E-02  (  1)
      7       1         0.55     0.39E-03  (  1)
    --------------------------------------------
    converged in  7 iterations

         Total time          4.75 minutes


 ===========================================




 ======== LINEAR CC RESPONSE SOLVER ========

    threshold for convergence: 0.10E-02
    maximum number of simultaneous jacoby matrix transformations:  1
                                                
     summary of start vectors generation:
     -------------------------------------------
     type of solution vectors      : RE0
     symmetry                      : a  
     number of vectors requested   :     1
     number of vectors generated   :     1
     -------------------------------------------
                                                

    Iter  #Vectors  time (min)    max. residual 
    --------------------------------------------
      1       1         0.62     0.10E+00  (  1)
      2       1         0.60     0.45E-01  (  1)
      3       1         0.67     0.30E-01  (  1)
      4       1         0.62     0.15E-01  (  1)
      5       1         0.61     0.38E-02  (  1)
      6       1         0.51     0.13E-02  (  1)
      7       1         0.66     0.79E-03  (  1)
    --------------------------------------------
    converged in  7 iterations

         Total time          4.29 minutes


 ===========================================




 Note that this is the intermediate result of a preoptimization!
 The convergence threshold was  0.1E-02 only!


 +==================================================================+
 | sym | multi | state |          CCS excitation energies           |
 |     |       |       +--------------------------------------------+
 |     |       |       |   Hartree    |     eV       |     cm-1     |
 +==================================================================+
 | a   |   1   |   1   |    0.1739253 |      4.73275 |    38172.181 |
 +-----+-------+-------+--------------+--------------+--------------+
 | a   |   3   |   1   |    0.0938624 |      2.55413 |    20600.426 |
 +==================================================================+




  preoptimize CC2 excitation energies/vectors using a quasi linear algorithm:
  ===========================================================================


 ======== LINEAR CC RESPONSE SOLVER ========

    threshold for convergence: 0.10E-02
    maximum number of simultaneous jacoby matrix transformations:  1
                                                
     summary of start vectors generation:
     -------------------------------------------
     type of solution vectors      : RE0
     symmetry                      : a  
     number of vectors requested   :     1
     number of vectors generated   :     1
     -------------------------------------------
                                                

    Iter  #Vectors  time (min)    max. residual 
    --------------------------------------------
 threshold for this macro iteration:  3.680395034158873E-003
      1       1         5.15     0.59E-01  (  1)
 ...adapted threshold to:  8.836120744277642E-003
      2       1         5.00     0.34E-01  (  1)
 ...adapted threshold to:  1.081262461138222E-002
      3       1         5.15     0.17E-01  (  1)
 ...adapted threshold to:  1.196177924706951E-002
      4       1         5.03     0.14E-01  (  1)
 ...adapted threshold to:  1.303467405528719E-002
      5       1         5.20     0.29E-01  (  1)
 ...adapted threshold to:  1.981919202640853E-002
      6       1         4.89     0.39E-01  (  1)
 ...adapted threshold to:  2.199625245362624E-002
      7       1         5.26     0.16E-01  (  1)
                                                
     summary of start vectors generation:
     -------------------------------------------
     type of solution vectors      : RE0
     symmetry                      : a  
     number of vectors requested   :     1
     number of vectors generated   :     1
     -------------------------------------------
                                                

    Iter  #Vectors  time (min)    max. residual 
    --------------------------------------------
 threshold for this macro iteration:  1.501285001763747E-003
      8       1         4.57     0.16E-01  (  1)
      9       1         4.76     0.77E-02  (  1)
     10       1         4.78     0.36E-02  (  1)
     11       1         5.03     0.19E-02  (  1)
     12       1         4.18     0.17E-02  (  1)
     13       1         3.12     0.16E-02  (  1)
     14       1         4.04     0.61E-03  (  1)
                                                
     summary of start vectors generation:
     -------------------------------------------
     type of solution vectors      : RE0
     symmetry                      : a  
     number of vectors requested   :     1
     number of vectors generated   :     1
     -------------------------------------------
                                                

    Iter  #Vectors  time (min)    max. residual 
    --------------------------------------------
 threshold for this macro iteration:  1.000000000000000E-003
     15       1         4.87     0.25E-03  (  1)
    --------------------------------------------
    converged in 15 iterations

         Total time         71.03 minutes


 ===========================================




 ======== LINEAR CC RESPONSE SOLVER ========

    threshold for convergence: 0.10E-02
    maximum number of simultaneous jacoby matrix transformations:  1
                                                
     summary of start vectors generation:
     -------------------------------------------
     type of solution vectors      : RE0
     symmetry                      : a  
     number of vectors requested   :     1
     number of vectors generated   :     1
     -------------------------------------------
                                                

    Iter  #Vectors  time (min)    max. residual 
    --------------------------------------------
 threshold for this macro iteration:  3.355569023351286E-002
      1       1         5.27     0.47E-01  (  1)
      2       1         5.11     0.22E-01  (  1)
                                                
     summary of start vectors generation:
     -------------------------------------------
     type of solution vectors      : RE0
     symmetry                      : a  
     number of vectors requested   :     1
     number of vectors generated   :     1
     -------------------------------------------
                                                

    Iter  #Vectors  time (min)    max. residual 
    --------------------------------------------
 threshold for this macro iteration:  1.337612415116790E-003
      3       1         4.66     0.22E-01  (  1)
 ...adapted threshold to:  2.612224421242287E-003
      4       1         4.97     0.18E-01  (  1)
 ...adapted threshold to:  3.203021614509874E-003
      5       1         5.07     0.77E-02  (  1)
 ...adapted threshold to:  3.249282832130829E-003
      6       1         4.79     0.24E-02  (  1)
                                                
     summary of start vectors generation:
     -------------------------------------------
     type of solution vectors      : RE0
     symmetry                      : a  
     number of vectors requested   :     1
     number of vectors generated   :     1
     -------------------------------------------
                                                

    Iter  #Vectors  time (min)    max. residual 
    --------------------------------------------
 threshold for this macro iteration:  1.000000000000000E-003
      7       1         5.03     0.72E-03  (  1)
    --------------------------------------------
    converged in  7 iterations

         Total time         34.90 minutes


 ===========================================




 Note that this is the intermediate result of a preoptimization!
 The convergence threshold was  0.1E-02 only!


 +==================================================================+
 | sym | multi | state |          CC2 excitation energies           |
 |     |       |       +--------------------------------------------+
 |     |       |       |   Hartree    |     eV       |     cm-1     |
 +==================================================================+
 | a   |   1   |   1   |    0.1528607 |      4.15955 |    33549.054 |
 +-----+-------+-------+--------------+--------------+--------------+
 | a   |   3   |   1   |    0.1173552 |      3.19340 |    25756.491 |
 +==================================================================+





  solve for CC2 excitation energies/vectors using a DIIS algorithm:
  =================================================================
                                                
     summary of start vectors generation:
     -------------------------------------------
     type of solution vectors      : RE0
     symmetry                      : a  
     number of vectors requested   :     1
     number of vectors generated   :     1
     -------------------------------------------
                                                


 ========= DIIS CC RESPONSE SOLVER =========

    threshold for convergence:0.10E-05
    max. nb. of DIIS vectors :      10
    maximum number of simultaneous jacoby matrix transformations:  1

    Iter  #Vectors  time (min)   residual
    --------------------------------------
      1       1         4.93     0.11E-03  (  1)    0.49E-31
      2       1         4.99     0.84E-04  (  1)    0.00E+00
      3       1         5.16     0.39E-04  (  1)    0.49E-31
      4       1         5.01     0.30E-04  (  1)    0.49E-31
      5       1         4.89     0.19E-04  (  1)    0.11E-30
      6       1         4.90     0.12E-04  (  1)    0.12E-29
      7       1         5.34     0.57E-05  (  1)    0.20E-30
      8       1         5.04     0.41E-05  (  1)    0.49E-31
      9       1         5.01     0.30E-05  (  1)    0.00E+00
     10       1         4.92     0.19E-05  (  1)    0.49E-31
     11       1         4.88     0.93E-06  (  1)    0.12E-29
    --------------------------------------
    converged in  11 iterations

   Total time         55.07 minutes


 ===========================================


                                                
     summary of start vectors generation:
     -------------------------------------------
     type of solution vectors      : RE0
     symmetry                      : a  
     number of vectors requested   :     1
     number of vectors generated   :     1
     -------------------------------------------
                                                


 ========= DIIS CC RESPONSE SOLVER =========

    threshold for convergence:0.10E-05
    max. nb. of DIIS vectors :      10
    maximum number of simultaneous jacoby matrix transformations:  1

    Iter  #Vectors  time (min)   residual
    --------------------------------------
      1       1         5.05     0.33E-03  (  1)    0.49E-31
      2       1         4.51     0.24E-03  (  1)    0.49E-31
      3       1         4.15     0.13E-03  (  1)    0.00E+00
      4       1         4.16     0.83E-04  (  1)    0.20E-30
      5       1         4.19     0.24E-04  (  1)    0.20E-30
      6       1         4.10     0.13E-04  (  1)    0.12E-31
      7       1         4.53     0.54E-05  (  1)    0.00E+00
      8       1         4.07     0.27E-05  (  1)    0.49E-31
      9       1         4.13     0.11E-05  (  1)    0.31E-30
     10       1         4.46     0.59E-06  (  1)    0.00E+00
    --------------------------------------
    converged in  10 iterations

   Total time         43.34 minutes


 ===========================================





 +================================================================================+
 | sym | multi | state |          CC2 excitation energies       |  %t1   |  %t2   |
 |     |       |       +----------------------------------------+--------+--------+
 |     |       |       |   Hartree    |    eV      |    cm-1    |    %   |    %   |
 +================================================================================+
 | a   |   1   |   1   |    0.1528751 |    4.15994 |  33552.212 |  88.90 |  11.10 |
 +-----+-------+-------+--------------+------------+------------+--------+--------+
 | a   |   3   |   1   |    0.1173337 |    3.19281 |  25751.766 |  92.79 |   7.21 |
 +================================================================================+


       Energy:     0.1528751 H      4.15994 eV    33552.212 cm-1

     +=======================================================================+
     | type: RE0                    symmetry: a               state:    1    |
     +-----------------------+-----------------------+-----------------------+
     | occ. orb.  index spin | vir. orb.  index spin |  coeff/|amp|     %    |
     +=======================+=======================+=======================+
     |   49 a       49       |   51 a       51       |   0.84227      70.9   |
     |   48 a       48       |   50 a       50       |  -0.29049       8.4   |
     |   49 a       49       |   50 a       50       |   0.23472       5.5   |
     |   47 a       47       |   50 a       50       |   0.19713       3.9   |
     |   46 a       46       |   52 a       52       |   0.16046       2.6   |
     |   47 a       47       |   57 a       57       |  -0.15493       2.4   |
     |   46 a       46       |   51 a       51       |  -0.10824       1.2   |
     |   49 a       49       |   52 a       52       |  -0.09872       1.0   |
     +=======================+=======================+=======================+
     norm of printed elements:  0.95897


       Energy:     0.1173337 H      3.19281 eV    25751.766 cm-1

     +=======================================================================+
     | type: RE0                    symmetry: a               state:    1    |
     +-----------------------+-----------------------+-----------------------+
     | occ. orb.  index spin | vir. orb.  index spin |  coeff/|amp|     %    |
     +=======================+=======================+=======================+
     |   49 a       49       |   50 a       50       |   0.92761      86.0   |
     |   46 a       46       |   57 a       57       |   0.19065       3.6   |
     |   48 a       48       |   51 a       51       |   0.14629       2.1   |
     |   47 a       47       |   52 a       52       |   0.12596       1.6   |
     |   47 a       47       |   51 a       51       |  -0.09092       0.8   |
     |   49 a       49       |   57 a       57       |  -0.07885       0.6   |
     |   48 a       48       |   52 a       52       |   0.05514       0.3   |
     +=======================+=======================+=======================+
     norm of printed elements:  0.95159



      The semi-canonical algorithm will be used for densities


    ------------------------------------------------------------------------
         total  cpu-time :  4 hours 50 minutes and 25 seconds
         total wall-time :  4 hours  5 minutes and 37 seconds
    ------------------------------------------------------------------------


   ****  ricc2 : all done  ****


    2017-10-05 19:24:41.920 

