 hostname is         nxv24
 this is node-proc. number 0 running on node nxv24
 the total number of node-proc. spawned is   1

   OpenMP run-time library returned nthreads =  4

 ricc2 (nxv24) : TURBOMOLE V7.0( 19819 ) 16 Jun 2015 at 16:30:15
 Copyright (C) 2015 TURBOMOLE GmbH, Karlsruhe


    2017-10-12 16:48:59.225 



                              R I C C 2 - PROGRAM

                          the quantum chemistry groups
                             at the universities in
                           Karlsruhe, Bochum & Mainz
                                   Germany



   *-----------------------------------------------------------------------*
   |                     program will use  4 thread(s)                     |
   *-----------------------------------------------------------------------*


              +--------------------------------------------------+
              | Atomic coordinate, charge and isotop information |
              +--------------------------------------------------+

                    atomic coordinates            atom    charge  isotop
          2.93162492   -0.98943887    0.46410668    c      6.000     0
          3.62952149   -1.25947741    3.16846134    c      6.000     0
          5.67448530    0.45512682    4.03083987    c      6.000     0
          7.69961709    0.43495596    2.45122783    c      6.000     0
          7.46622414   -0.72222313   -0.02320947    c      6.000     0
          5.08413943   -1.21328014   -1.07007201    c      6.000     0
          4.00400515   -3.23566078    3.68942396    h      1.000     0
          5.64534640    1.46284439    5.81866883    h      1.000     0
          9.43340975    1.43437425    2.91761239    h      1.000     0
          9.12992901   -0.86474590   -1.21209693    h      1.000     0
          4.93110922   -1.51753518   -3.09830585    h      1.000     0
          0.39205509   -0.54141935   -0.38529409    c      6.000     0
         -0.20087186   -0.03175870   -2.94354064    c      6.000     0
         -2.65834153    0.44598472   -3.68710352    c      6.000     0
         -4.62501852    0.46739812   -1.90395554    c      6.000     0
         -4.09514676   -0.06674163    0.62979766    c      6.000     0
         -1.61748319   -0.58149317    1.35534337    c      6.000     0
          1.29721314    0.05032877   -4.34163872    h      1.000     0
         -3.11253396    0.86358243   -5.64216174    h      1.000     0
         -6.95951526    1.04218190   -2.82906797    o      8.000     0
         -5.57575329   -0.10593247    2.04075354    h      1.000     0
         -1.21077019   -1.03581071    3.31539059    h      1.000     0
         -8.92581520    1.31589959   -1.01054078    c      6.000     0
        -10.57887832    1.92819340   -2.06722975    h      1.000     0
         -9.32875343   -0.47838328   -0.06755533    h      1.000     0
         -8.42979716    2.74304590    0.40013040    h      1.000     0
 
       center of nuclear mass  :    0.07602047   -0.05175097   -0.16593412
       center of nuclear charge:    0.05161578   -0.04221477   -0.14717539

              +--------------------------------------------------+
              |               basis set information              |
              +--------------------------------------------------+

              we will work with the 1s 3p 5d 7f 9g ... basis set
              ...i.e. with spherical basis functions...

   type   atoms  prim   cont   basis
   ---------------------------------------------------------------------------
    c       13     46     31   def2-TZVP   [5s3p2d1f|11s6p2d1f]
    h       12      8      6   def2-TZVP   [3s1p|5s1p]
    o        1     46     31   def2-TZVP   [5s3p2d1f|11s6p2d1f]
   ---------------------------------------------------------------------------
   total:   26    740    506
   ---------------------------------------------------------------------------

   total number of primitive shells          :   46
   total number of contracted shells         :  202
   total number of cartesian basis functions :  576
   total number of SCF-basis functions       :  506



   =========================================================================


     restricted closed shell calculation for the wavefunction models:
               CC2        - Approximate CC Singles and Doubles


     global parameters for ricc2 program:

        hard restart (reuse of interm.) :  disabled
        soft restart (reuse of vectors) :  enabled 
        threshold for vector function   :    0.100000E-05
        convergence threshold energy    :    0.100000E-06
        linear dependence threshold     :    0.100000E-13
        global print level              :      1
        maximum number of iterations    :    30
        maximum number DIIS vectors     :    10
        max. dim. of reduced space      :   100
        core memory limit (MB)          :  6000


     this is a ground state geometry optimization run at the CC2 level


   =========================================================================

    der. integral neglect threshold  :  0.10E-07
    integral neglect threshold       :  0.58E-11
    integral storage threshold THIZE :  0.10E-04
    integral storage threshold THIME :         5


                  +------------------------------------------+
                  |     Auxiliary basis set information      |
                  +------------------------------------------+

              we will work with the 1s 3p 5d 7f 9g ... basis set
              ...i.e. with spherical basis functions...

   type   atoms  prim   cont   basis
   ---------------------------------------------------------------------------
    c       13     81     76   def2-TZVP   [8s6p4d3f1g|8s6p5d3f1g]
    h       12     23     15   def2-TZVP   [4s2p1d|4s3p2d]
    o        1     81     76   def2-TZVP   [8s6p4d3f1g|8s6p5d3f1g]
   ---------------------------------------------------------------------------
   total:   26   1410   1244
   ---------------------------------------------------------------------------

   total number of primitive shells          :   55
   total number of contracted shells         :  392
   total number of cartesian basis functions : 1522
   total number of SCF-basis functions       : 1244


 symmetry group of the molecule :   c1 

 the group has the following generators :
   c1(z)

    1 symmetry operations found

 there are 1 real representations :   a   

 maximum number of shells which are related by symmetry :  1


 The symmetry information takes   1 MB

*---------------------------------------------------------------------*
|               simplified C1 algorithm will be applied               |
*---------------------------------------------------------------------*
  MOs are in ASCII format !


 reading orbital data $scfmo  from file mos . 

 orbital characterization : scfconv=7
 

         --------------------------------------------------------------
                   checking mo's by calculating trace(D*S)

              number of electrons : 
                 from trace(D*S)         :   98.000000000007
                 from occupation numbers :   98.000000000000

              molecular charge           :    0.000000000000
         --------------------------------------------------------------

 time elapsed for calculating density matrices :   0.081 sec



              +--------------------------------------------+
              | list of orbitals that will be kept frozen: |
              +--------------------------------------------+
              |   irrep   index      energy     occ/vir    |
              +--------------------------------------------+
              |   a         1      -20.5951     occupied   |
              |   a         2      -11.3141     occupied   |
              |   a         3      -11.2904     occupied   |
              |   a         4      -11.2672     occupied   |
              |   a         5      -11.2511     occupied   |
              |   a         6      -11.2470     occupied   |
              |   a         7      -11.2451     occupied   |
              |   a         8      -11.2399     occupied   |
              |   a         9      -11.2376     occupied   |
              |   a        10      -11.2360     occupied   |
              |   a        11      -11.2337     occupied   |
              |   a        12      -11.2290     occupied   |
              |   a        13      -11.2205     occupied   |
              |   a        14      -11.2103     occupied   |
              +--------------------------------------------+



   Molecular Orbital Statistic:
   ============================

   -----------------------------
   orbitals in total:
   -----------------------------
    frozen occupied :     14
    active occupied :     35
    active virtual  :    457
    frozen virtual  :      0
    all together    :    506
   -----------------------------


     time in riccmos       cpu:  0.81 sec    wall:  0.20 sec    ratio:  4.0

     total memory allocated for calculation of (Q|P)**(-1/2) : 18 MiB


     calculation of (P|Q) ...
     time in lp2sym        cpu:  0.17 sec    wall:  0.04 sec    ratio:  4.0


     calculation of the Cholesky decomposition of (P|Q)**(-1) ...
     time in invmetri      cpu:  0.58 sec    wall:  0.15 sec    ratio:  4.0

   threshold for RMS(d[D]) in SCF was     :  0.10E-06
   integral neglect threshold             :  0.58E-11
   derivative integral neglect threshold  :  0.10E-07


 setting up bound for integral derivative estimation

 increment for numerical differentiation : 0.00050000

   =========================================================================

     Energy of reference wave function is  -574.1551504601000
     Maximum orbital residual is           0.2267717656626E-05


     Number of symmetry-nonredundant auxiliary basis functions:     1244

     Block lengths for integral files:
        frozen occupied (BOI):        1 MiB
        active occupied (BJI):        1 MiB
        active virtual  (BAI):        5 MiB
        frozen virtual  (BGI):        0 MiB
               general  (BTI):        5 MiB

   =========================================================================




   **************************************************************************
   *                                                                        *
   *          OPTIMIZATION OF THE GROUND STATE CLUSTER AMPLITUDES           *
   *                                                                        *
   **************************************************************************
     restart CC2 from CC2 amplitudes found on the R0   file.
     remaining residual norm is   0.20E-05


   Iter.   CC2 energy       Norm(Omega)    Norm(t1)  Norm(t2)     cpu    wall
   ...........................................................................
    1   -576.4719770461    0.0570157022     0.22854   0.54309    0.95    0.24
    2   -576.4733544283    0.0088136792     0.22665   0.54334    0.95    0.24
    3   -576.4737420474    0.0013162691     0.22789   0.54347    0.95    0.24
    4   -576.4738121214    0.0002732813     0.22835   0.54349    0.95    0.24
    5   -576.4738230356    0.0000673676     0.22854   0.54350    0.95    0.24
    6   -576.4738244664    0.0000165067     0.22862   0.54350    0.95    0.24
    7   -576.4738248988    0.0000076712     0.22866   0.54351    0.95    0.24
    8   -576.4738255022    0.0000029461     0.22870   0.54351    0.95    0.24
    9   -576.4738257097    0.0000008914     0.22871   0.54351    0.95    0.24
   10   -576.4738257283    0.0000002574     0.22871   0.54351    0.95    0.24
   ...........................................................................
   CC equations converged in 10 iterations.

   last energy change         :  0.19E-07
   convergence threshold      :  0.10E-06
   norm of the vector function:  0.26E-06
   convergence threshold      :  0.10E-05

     time in total         cpu:  9 min 29 s  wall:  2 min 23 s  ratio:  4.0


     **********************************************************************
     *                                                                    *
     *   RHF  energy                             :   -574.1551504601      *
     *   correlation energy                      :     -2.3186752682      *
     *                                                                    *
     *   Final CC2 energy                        :   -576.4738257283      *
     *                                                                    *
     *   D1 diagnostic                           :      0.1905            *
     *                                                                    *
     **********************************************************************


      A SCF based gradient calculation with 4-index ERIs will be done.
      Solution of CPHF equation will be preoptimized using RI-CPHF.
      A "cbas" type auxiliary basis is used for RI-SCF and/or RI-CPHF.

      The semi-canonical algorithm will be used for densities


 ======== LINEAR CC RESPONSE SOLVER ========

    threshold for convergence: 0.10E-05
    maximum number of simultaneous jacoby matrix transformations:  1
                                                
     summary of start vectors generation:
     -------------------------------------------
     type of solution vectors      : L0 
     symmetry                      : a  
     number of vectors requested   :     1
     number of vectors generated   :     1
     -------------------------------------------
                                                

    Iter  #Vectors  time (min)    max. residual 
    --------------------------------------------
      1       1         0.33     0.17E+00  (  1)
      2       1         0.33     0.48E-01  (  1)
      3       1         0.33     0.20E-01  (  1)
      4       1         0.33     0.10E-01  (  1)
      5       1         0.33     0.27E-02  (  1)
      6       1         0.33     0.71E-03  (  1)
      7       1         0.33     0.26E-03  (  1)
      8       1         0.33     0.91E-04  (  1)
      9       1         0.33     0.33E-04  (  1)
     10       1         0.34     0.10E-04  (  1)
     11       1         0.33     0.26E-05  (  1)
     12       1         0.33     0.59E-06  (  1)
    --------------------------------------------
    converged in 12 iterations

         Total time          4.01 minutes


 ===========================================




                    ========   CC DENSITY MODULE   ========

                      current wave-function model: CC2     

  calculating CC ground state density

   a semicanonical algorithm will be used when possible

    density nr.      cpu/min        wall/min    L     R
   ------------------------------------------------------
         1             2.49            0.64    L0     R0  
   ------------------------------------------------------
     time in cc_1den       cpu:  2 min 29 s  wall:  0 min 38 s  ratio:  3.9

 reading orbital data $scfmo  from file mos . 

 orbital characterization : scfconv=7
 

   ECC2            :     -576.473825728302
   ECC2 from traces:     -576.473825735809
   Delta           :        0.000000007507

   --------------------------------------------------------------------------

        Solving 4-Index ERI based CPHF equations using a RI-CPHF
        preoptimization with a "cbas" type auxiliary basis


 ======== LINEAR CC RESPONSE SOLVER ========

    threshold for convergence: 0.32E-01
    maximum number of simultaneous jacoby matrix transformations:  1
                                                
     summary of start vectors generation:
     -------------------------------------------
     type of solution vectors      : l0o
     symmetry                      : a  
     number of vectors requested   :     1
     number of vectors generated   :     1
     -------------------------------------------
                                                

    Iter  #Vectors  time (min)    max. residual 
    --------------------------------------------
      1       1         0.09     0.22E+00  (  1)
      2       1         0.09     0.54E-01  (  1)
      3       1         0.09     0.21E-01  (  1)
    --------------------------------------------
    converged in  3 iterations

         Total time          0.28 minutes


 ===========================================




 ======== LINEAR CC RESPONSE SOLVER ========

    threshold for convergence: 0.10E-02
    maximum number of simultaneous jacoby matrix transformations:  1
                                                
     summary of start vectors generation:
     -------------------------------------------
     type of solution vectors      : l0o
     symmetry                      : a  
     number of vectors requested   :     1
     number of vectors generated   :     1
     -------------------------------------------
                                                

    Iter  #Vectors  time (min)    max. residual 
    --------------------------------------------
      1       1         0.64     0.21E-01  (  1)
      2       1         0.65     0.99E-02  (  1)
      3       1         0.65     0.46E-02  (  1)
      4       1         0.66     0.26E-02  (  1)
      5       1         0.65     0.20E-02  (  1)
      6       1         0.66     0.12E-02  (  1)
      7       1         0.67     0.48E-03  (  1)
    --------------------------------------------
    converged in  7 iterations

         Total time          4.59 minutes


 ===========================================


   --------------------------------------------------------------------------

 1e-integral 1st. derivatives will be neglected if expon. factor < 0.100000E-11

 

     +--------------------------------------------------------------------+
     | CC2 unrelaxed natural orbital occupation numbers                   |
     +--------------------------------------------------------------------+
     | natural orb.  |  occupation numbers                                |
     +---------------+----------------------------------------------------+
     | a             |                                                    |
     |     1 -     5 |     2.0000    2.0000    2.0000    2.0000    2.0000 |
     |     6 -    10 |     2.0000    2.0000    2.0000    2.0000    2.0000 |
     |    11 -    15 |     2.0000    2.0000    2.0000    2.0000    1.9842 |
     |    16 -    20 |     1.9821    1.9810    1.9783    1.9780    1.9767 |
     |    21 -    25 |     1.9761    1.9736    1.9706    1.9684    1.9677 |
     |    26 -    30 |     1.9673    1.9662    1.9660    1.9629    1.9599 |
     |    31 -    35 |     1.9592    1.9568    1.9552    1.9540    1.9532 |
     |    36 -    40 |     1.9523    1.9493    1.9477    1.9472    1.9463 |
     |    41 -    45 |     1.9441    1.9422    1.9404    1.9384    1.9333 |
     |    46 -    50 |     1.9052    1.9033    1.8900    1.8575    0.1242 |
     |    51 -    55 |     0.0871    0.0736    0.0665    0.0441    0.0380 |
     |    56 -    60 |     0.0358    0.0348    0.0345    0.0318    0.0296 |
     |    61 -    65 |     0.0284    0.0277    0.0261    0.0257    0.0252 |
     |    66 -    70 |     0.0244    0.0219    0.0217    0.0214    0.0202 |
     |    71 -    75 |     0.0200    0.0195    0.0190    0.0185    0.0182 |
     |    76 -    80 |     0.0181    0.0178    0.0172    0.0165    0.0156 |
     |    81 -    85 |     0.0151    0.0146    0.0146    0.0142    0.0137 |
     |    86 -    90 |     0.0133    0.0131    0.0127    0.0124    0.0123 |
     |    91 -    95 |     0.0116    0.0113    0.0112    0.0108    0.0107 |
     |    96 -   100 |     0.0105    0.0104    0.0103    0.0100    0.0097 |
     |   101 -   105 |     0.0096    0.0096    0.0094    0.0092    0.0090 |
     |   106 -   110 |     0.0088    0.0080    0.0077    0.0076    0.0075 |
     |   111 -   115 |     0.0074    0.0070    0.0068    0.0065    0.0063 |
     |   116 -   120 |     0.0061    0.0059    0.0059    0.0056    0.0055 |
     |   121 -   125 |     0.0053    0.0052    0.0049    0.0049    0.0048 |
     |   126 -   130 |     0.0046    0.0043    0.0042    0.0041    0.0041 |
     |   131 -   135 |     0.0039    0.0037    0.0037    0.0036    0.0034 |
     |   136 -   140 |     0.0033    0.0033    0.0032    0.0031    0.0031 |
     |   141 -   145 |     0.0030    0.0029    0.0029    0.0028    0.0027 |
     |   146 -   150 |     0.0026    0.0025    0.0024    0.0023    0.0022 |
     |   151 -   155 |     0.0022    0.0021    0.0021    0.0020    0.0020 |
     |   156 -   160 |     0.0019    0.0019    0.0019    0.0019    0.0018 |
     |   161 -   165 |     0.0018    0.0018    0.0017    0.0017    0.0017 |
     |   166 -   170 |     0.0017    0.0016    0.0016    0.0016    0.0015 |
     |   171 -   175 |     0.0015    0.0015    0.0014    0.0014    0.0014 |
     |   176 -   180 |     0.0014    0.0014    0.0013    0.0013    0.0013 |
     |   181 -   185 |     0.0013    0.0012    0.0012    0.0012    0.0012 |
     |   186 -   190 |     0.0012    0.0011    0.0011    0.0011    0.0011 |
     |   191 -   195 |     0.0011    0.0010    0.0010    0.0010    0.0010 |
     +---------------+----------------------------------------------------+
      natural orbitals with occ <   0.10E-02 are not shown

      Maximum change in occupation number:
        occupied         :    -7.13 % (   49 a    )
        virtual          :     6.21 % (   50 a    )
 

     +--------------------------------------------------------------------+
     | CC2 relaxed   natural orbital occupation numbers                   |
     +--------------------------------------------------------------------+
     | natural orb.  |  occupation numbers                                |
     +---------------+----------------------------------------------------+
     | a             |                                                    |
     |     1 -     5 |     2.0000    2.0000    2.0000    2.0000    2.0000 |
     |     6 -    10 |     2.0000    2.0000    2.0000    2.0000    2.0000 |
     |    11 -    15 |     2.0000    2.0000    2.0000    2.0000    1.9842 |
     |    16 -    20 |     1.9821    1.9811    1.9784    1.9780    1.9767 |
     |    21 -    25 |     1.9762    1.9736    1.9706    1.9685    1.9678 |
     |    26 -    30 |     1.9674    1.9663    1.9662    1.9630    1.9601 |
     |    31 -    35 |     1.9593    1.9569    1.9554    1.9543    1.9535 |
     |    36 -    40 |     1.9525    1.9496    1.9480    1.9474    1.9464 |
     |    41 -    45 |     1.9443    1.9425    1.9405    1.9388    1.9336 |
     |    46 -    50 |     1.9057    1.9041    1.8902    1.8516    0.1283 |
     |    51 -    55 |     0.0864    0.0735    0.0663    0.0437    0.0378 |
     |    56 -    60 |     0.0357    0.0346    0.0344    0.0317    0.0295 |
     |    61 -    65 |     0.0283    0.0276    0.0260    0.0256    0.0251 |
     |    66 -    70 |     0.0243    0.0217    0.0217    0.0213    0.0202 |
     |    71 -    75 |     0.0200    0.0194    0.0190    0.0185    0.0182 |
     |    76 -    80 |     0.0181    0.0178    0.0171    0.0164    0.0156 |
     |    81 -    85 |     0.0150    0.0147    0.0146    0.0141    0.0137 |
     |    86 -    90 |     0.0133    0.0131    0.0127    0.0124    0.0123 |
     |    91 -    95 |     0.0116    0.0113    0.0112    0.0109    0.0107 |
     |    96 -   100 |     0.0106    0.0104    0.0103    0.0100    0.0097 |
     |   101 -   105 |     0.0096    0.0096    0.0094    0.0092    0.0091 |
     |   106 -   110 |     0.0087    0.0080    0.0077    0.0076    0.0075 |
     |   111 -   115 |     0.0074    0.0069    0.0068    0.0065    0.0063 |
     |   116 -   120 |     0.0061    0.0059    0.0058    0.0056    0.0055 |
     |   121 -   125 |     0.0053    0.0051    0.0049    0.0049    0.0047 |
     |   126 -   130 |     0.0046    0.0043    0.0042    0.0041    0.0041 |
     |   131 -   135 |     0.0039    0.0037    0.0037    0.0036    0.0034 |
     |   136 -   140 |     0.0033    0.0033    0.0032    0.0031    0.0031 |
     |   141 -   145 |     0.0030    0.0029    0.0029    0.0028    0.0027 |
     |   146 -   150 |     0.0026    0.0025    0.0024    0.0023    0.0022 |
     |   151 -   155 |     0.0022    0.0021    0.0021    0.0021    0.0020 |
     |   156 -   160 |     0.0019    0.0019    0.0019    0.0019    0.0018 |
     |   161 -   165 |     0.0018    0.0018    0.0017    0.0017    0.0017 |
     |   166 -   170 |     0.0017    0.0016    0.0016    0.0016    0.0016 |
     |   171 -   175 |     0.0015    0.0014    0.0014    0.0014    0.0014 |
     |   176 -   180 |     0.0014    0.0014    0.0013    0.0013    0.0013 |
     |   181 -   185 |     0.0013    0.0012    0.0012    0.0012    0.0012 |
     |   186 -   190 |     0.0012    0.0011    0.0011    0.0011    0.0011 |
     |   191 -   195 |     0.0011    0.0010    0.0010    0.0010    0.0010 |
     +---------------+----------------------------------------------------+
      natural orbitals with occ <   0.10E-02 are not shown

      Maximum change in occupation number:
        occupied         :    -7.42 % (   49 a    )
        virtual          :     6.41 % (   50 a    )


 **************************************************************
 *                                                            *
 *<<<<<<<<<<  GROUND STATE FIRST-ORDER PROPERTIES  >>>>>>>>>>>*
 *                                                            *
 **************************************************************



        ------------------------------------------------
            Method          :  CC2     
            Total Energy    :   -576.4738257283
            D1 diagnostic   :      0.1905
        ------------------------------------------------


        ------------------------------------------------
                      moments of inertia 
              768.129   5695.779   6275.285  in a.u.
 
                     rotational constants 
              0.07837    0.01057    0.00959  in cm**(-1)
        ------------------------------------------------


 +===========================================================================+
 | OPERATOR         | EXPECTAT. VALUE  | ELECTRONIC CONT. | NUCLEAR CONTRIB. |
 +==================+==================+==================+==================+
 |                  |                  |                  |                  |
 | xdiplen  (unrel) |     -0.78299676  |     -5.84134341  |      5.05834665  | 
 | xdiplen  (relax) |     -0.78608297  |     -5.84442962  |      5.05834665  | 
 |                  |                  |                  |                  |
 | ydiplen  (unrel) |      0.15794312  |      4.29499028  |     -4.13704716  | 
 | ydiplen  (relax) |      0.16665968  |      4.30370685  |     -4.13704716  | 
 |                  |                  |                  |                  |
 | zdiplen  (unrel) |      0.09098862  |     14.51417675  |    -14.42318812  | 
 | zdiplen  (relax) |      0.04459560  |     14.46778373  |    -14.42318812  | 
 |                  |                  |                  |                  |
 | xxqudlen (unrel) |    -51.42727944  |  -2932.71217818  |   2881.28489874  | 
 | xxqudlen (relax) |    -51.59921558  |  -2932.88411432  |   2881.28489874  | 
 |                  |                  |                  |                  |
 | xyqudlen (unrel) |     -0.79791056  |    266.72334123  |   -267.52125179  | 
 | xyqudlen (relax) |     -0.77097012  |    266.75028167  |   -267.52125179  | 
 |                  |                  |                  |                  |
 | xzqudlen (unrel) |     -2.81139861  |   -658.52220817  |    655.71080956  | 
 | xzqudlen (relax) |     -3.07460392  |   -658.78541348  |    655.71080956  | 
 |                  |                  |                  |                  |
 | yyqudlen (unrel) |    -64.40870548  |   -150.56455937  |     86.15585389  | 
 | yyqudlen (relax) |    -64.67037485  |   -150.82622875  |     86.15585389  | 
 |                  |                  |                  |                  |
 | yzqudlen (unrel) |      0.72296199  |     57.15562159  |    -56.43265960  | 
 | yzqudlen (relax) |      0.82854274  |     57.26120234  |    -56.43265960  | 
 |                  |                  |                  |                  |
 | zzqudlen (unrel) |    -59.47447343  |   -638.49445822  |    579.01998479  | 
 | zzqudlen (relax) |    -60.09164716  |   -639.11163195  |    579.01998479  | 
 |                  |                  |                  |                  |
 +===========================================================================+


     Analysis of relaxed properties:
     ===============================


     dipole moment:
     --------------

     x     -0.78608297
     y      0.16665968
     z      0.04459560

     | dipole moment | =      0.80479231 a.u. =      2.04557782 debye


     traceless quadrupole tensor:
     ----------------------------

               x              y              z

     x    10.78179543    -1.15645517    -4.61190588
     y                   -8.82494348     1.24281412
     z                                  -1.95685195


     principal axes of tensor: 

      x' = (   0.9478468,  -0.0699177,  -0.3109630 )
      y' = (   0.0204262,   0.9869623,  -0.1596499 )
      z' = (   0.3180711,   0.1449719,   0.9369172 )

     < Q(x'x') > =     12.38014318 a.u.
     < Q(y'y') > =     -9.04991379 a.u.
     < Q(z'z') > =     -3.33022939 a.u.


     second moment of electron density:
     ----------------------------------

               x              y              z

     x  2932.88411432  -266.75028167   658.78541348
     y                  150.82622875   -57.26120234
     z                                 639.11163195


     principal axes of tensor: 

      x' = (   0.9623213,  -0.0909822,   0.2562421 )
      y' = (   0.0980134,   0.9950754,  -0.0147760 )
      z' = (  -0.2536359,   0.0393344,   0.9664997 )

     < x'x'> =   3133.52198283 a.u.
     < y'y'> =    125.40201490 a.u.
     < z'z'> =    463.89797728 a.u.

     Isotropic second moment:     alpha =   1240.94065834 a.u.

     Anisotropy of second moment:  beta =   2513.15350658 a.u.
 

    --------------------------------------------------------------------------


     Analysis of unrelaxed properties:
     =================================


     dipole moment:
     --------------

     x     -0.78299676
     y      0.15794312
     z      0.09098862

     | dipole moment | =      0.80393338 a.u. =      2.04339464 debye


     traceless quadrupole tensor:
     ----------------------------

               x              y              z

     x    10.51431002    -1.19686584    -4.21709791
     y                   -8.95782904     1.08444298
     z                                  -1.55648097


     principal axes of tensor: 

      x' = (   0.9505548,  -0.0701237,  -0.3025364 )
      y' = (   0.0340128,   0.9918207,  -0.1230235 )
      z' = (   0.3086888,   0.1066505,   0.9451650 )

     < Q(x'x') > =     11.94479508 a.u.
     < Q(y'y') > =     -9.13338578 a.u.
     < Q(z'z') > =     -2.81140931 a.u.


     second moment of electron density:
     ----------------------------------

               x              y              z

     x  2932.71217818  -266.72334123   658.52220817
     y                  150.56455937   -57.15562159
     z                                 638.49445822


     principal axes of tensor: 

      x' = (   0.9623559,  -0.0909676,   0.2561172 )
      y' = (   0.0980481,   0.9950688,  -0.0149860 )
      z' = (  -0.2534910,   0.0395337,   0.9665296 )

     < x'x'> =   3133.18066862 a.u.
     < y'y'> =    125.14402621 a.u.
     < z'z'> =    463.44650094 a.u.

     Isotropic second moment:     alpha =   1240.59039859 a.u.

     Anisotropy of second moment:  beta =   2513.40855003 a.u.
 
 
                  ------------------------------
                   total gradient of CC2 energy      
                  ------------------------------

          ------------------------------------------------
           cartesian gradient of the energy (hartree/bohr)
          ------------------------------------------------

  ATOM      1 c           2 c           3 c           4 c           5 c 
dE/dx -0.2603015D-01  0.1418615D-02  0.1376638D-01 -0.8426231D-02 -0.1330025D-01
dE/dy  0.8907541D-02 -0.2659161D-01  0.3265898D-01 -0.1130028D-01 -0.1121391D-01
dE/dz -0.9824843D-02  0.4095201D-03  0.1298305D-01  0.3943252D-01 -0.7961299D-02

  ATOM      6 c           7 h           8 h           9 h          10 h 
dE/dx -0.4809504D-02  0.3499182D-01 -0.3376160D-02 -0.2963048D-04 -0.6028447D-03
dE/dy -0.2414672D-01 -0.1339593D-02  0.1473843D-01  0.5209312D-03  0.1142911D-02
dE/dz -0.1923986D-02 -0.2502381D-01 -0.7206648D-02  0.1644127D-02 -0.6332898D-03

  ATOM     11 h          12 c          13 c          14 c          15 c 
dE/dx  0.1105034D-03  0.9235399D-02 -0.2937377D-02  0.1263154D-02  0.7694355D-03
dE/dy -0.2814036D-03  0.1873868D-01  0.7943756D-03 -0.2059841D-02  0.7337735D-03
dE/dz -0.1278861D-02  0.1721966D-02 -0.2477896D-02 -0.1867509D-03  0.3258338D-02

  ATOM     16 c          17 c          18 h          19 h          20 o 
dE/dx -0.1144587D-02  0.1854463D-02  0.1515778D-03  0.1860525D-05 -0.2605930D-02
dE/dy  0.2925391D-02 -0.1146132D-02  0.8990752D-03 -0.2418077D-03 -0.7595353D-03
dE/dz -0.1546387D-02  0.5341904D-03  0.1529247D-03 -0.1724564D-04 -0.6903076D-03

  ATOM     21 h          22 h          23 c          24 h          25 h 
dE/dx  0.9232558D-04 -0.1305262D-02  0.8559193D-03 -0.8390297D-05 -0.9201781D-04
dE/dy -0.3247363D-03 -0.3280223D-02  0.2709843D-03  0.2395174D-03  0.3358337D-04
dE/dz -0.1386846D-03 -0.9287566D-03 -0.5947071D-03  0.1784490D-04  0.8229957D-04

  ATOM     26 h 
dE/dx  0.1568811D-03
dE/dy  0.8161198D-04
dE/dz  0.1966918D-03
 
 resulting FORCE  (fx,fy,fz) = (-.539D-10,0.166D-09,-.120D-09)
 resulting MOMENT (mx,my,mz) = (-.244D-05,-.497D-06,0.561D-05)


 **********************************************************************
  |maximum component of gradient| : 0.39432523E-01  (atom  4 c )       
   gradient norm                  : 0.91487379E-01
 **********************************************************************

   ***  orbital-relaxed dipole moment written to <control>  ***


 <getgrd> : data group $grad  is missing 

   ***  cartesian gradients written onto <gradient>  ***
 
 ==============================================================================
 
 Exporting ground state density


    ------------------------------------------------------------------------
         total  cpu-time : 57 minutes and 45 seconds
         total wall-time : 14 minutes and 30 seconds
    ------------------------------------------------------------------------


   ****  ricc2 : all done  ****


    2017-10-12 17:03:28.795 

