 Entering Gaussian System, Link 0=g09
 Input=m4-FC.com
 Output=m4-FC.out
 Initial command:
 /share/apps/gaussian/g09_D01/g09/l1.exe "/tmp/140992.1.all.q/Gau-3525.inp" -scrdir="/tmp/140992.1.all.q/"
 Entering Link 1 = /share/apps/gaussian/g09_D01/g09/l1.exe PID=      3527.
  
 Copyright (c) 1988,1990,1992,1993,1995,1998,2003,2009,2013,
            Gaussian, Inc.  All Rights Reserved.
  
 This is part of the Gaussian(R) 09 program.  It is based on
 the Gaussian(R) 03 system (copyright 2003, Gaussian, Inc.),
 the Gaussian(R) 98 system (copyright 1998, Gaussian, Inc.),
 the Gaussian(R) 94 system (copyright 1995, Gaussian, Inc.),
 the Gaussian 92(TM) system (copyright 1992, Gaussian, Inc.),
 the Gaussian 90(TM) system (copyright 1990, Gaussian, Inc.),
 the Gaussian 88(TM) system (copyright 1988, Gaussian, Inc.),
 the Gaussian 86(TM) system (copyright 1986, Carnegie Mellon
 University), and the Gaussian 82(TM) system (copyright 1983,
 Carnegie Mellon University). Gaussian is a federally registered
 trademark of Gaussian, Inc.
  
 This software contains proprietary and confidential information,
 including trade secrets, belonging to Gaussian, Inc.
  
 This software is provided under written license and may be
 used, copied, transmitted, or stored only in accord with that
 written license.
  
 The following legend is applicable only to US Government
 contracts under FAR:
  
                    RESTRICTED RIGHTS LEGEND
  
 Use, reproduction and disclosure by the US Government is
 subject to restrictions as set forth in subparagraphs (a)
 and (c) of the Commercial Computer Software - Restricted
 Rights clause in FAR 52.227-19.
  
 Gaussian, Inc.
 340 Quinnipiac St., Bldg. 40, Wallingford CT 06492
  
  
 ---------------------------------------------------------------
 Warning -- This program may not be used in any manner that
 competes with the business of Gaussian, Inc. or will provide
 assistance to any competitor of Gaussian, Inc.  The licensee
 of this program is prohibited from giving any competitor of
 Gaussian, Inc. access to this program.  By using this program,
 the user acknowledges that Gaussian, Inc. is engaged in the
 business of creating and licensing software in the field of
 computational chemistry and represents and warrants to the
 licensee that it is not a competitor of Gaussian, Inc. and that
 it will not use this program in any manner prohibited above.
 ---------------------------------------------------------------
  

 Cite this work as:
 Gaussian 09, Revision D.01,
 M. J. Frisch, G. W. Trucks, H. B. Schlegel, G. E. Scuseria, 
 M. A. Robb, J. R. Cheeseman, G. Scalmani, V. Barone, B. Mennucci, 
 G. A. Petersson, H. Nakatsuji, M. Caricato, X. Li, H. P. Hratchian, 
 A. F. Izmaylov, J. Bloino, G. Zheng, J. L. Sonnenberg, M. Hada, 
 M. Ehara, K. Toyota, R. Fukuda, J. Hasegawa, M. Ishida, T. Nakajima, 
 Y. Honda, O. Kitao, H. Nakai, T. Vreven, J. A. Montgomery, Jr., 
 J. E. Peralta, F. Ogliaro, M. Bearpark, J. J. Heyd, E. Brothers, 
 K. N. Kudin, V. N. Staroverov, T. Keith, R. Kobayashi, J. Normand, 
 K. Raghavachari, A. Rendell, J. C. Burant, S. S. Iyengar, J. Tomasi, 
 M. Cossi, N. Rega, J. M. Millam, M. Klene, J. E. Knox, J. B. Cross, 
 V. Bakken, C. Adamo, J. Jaramillo, R. Gomperts, R. E. Stratmann, 
 O. Yazyev, A. J. Austin, R. Cammi, C. Pomelli, J. W. Ochterski, 
 R. L. Martin, K. Morokuma, V. G. Zakrzewski, G. A. Voth, 
 P. Salvador, J. J. Dannenberg, S. Dapprich, A. D. Daniels, 
 O. Farkas, J. B. Foresman, J. V. Ortiz, J. Cioslowski, 
 and D. J. Fox, Gaussian, Inc., Wallingford CT, 2013.
 
 ******************************************
 Gaussian 09:  ES64L-G09RevD.01 24-Apr-2013
                 2-Oct-2017 
 ******************************************
 %chk=m4-FC
 %mem=14GB
 %nproc=2
 Will use up to    2 processors via shared memory.
 ------------------------------------------------
 #p wb97xd 6-311+G(d) nosymm td=(nstates=5,50-50)
 ------------------------------------------------
 1/38=1/1;
 2/12=2,15=1,17=6,18=5,40=1/2;
 3/5=4,6=6,7=11,11=9,16=1,25=1,30=1,74=-58/1,2,8,3;
 4//1;
 5/5=2,38=5/2;
 8/6=1,10=2,108=5/1;
 9/41=5,42=1,48=2,70=2/14;
 6/7=2,8=2,9=2,10=2/1;
 99/5=1,9=1/99;
 Leave Link    1 at Mon Oct  2 15:04:26 2017, MaxMem=  1879048192 cpu:         0.1
 (Enter /share/apps/gaussian/g09_D01/g09/l101.exe)
 ------------------------------
 m4 tddft singlets and triplets
 ------------------------------
 Symbolic Z-matrix:
 Charge =  0 Multiplicity = 1
 C                     0.33809  -0.12504   0.1735 
 C                     0.73414   0.33405   1.43247 
 C                     2.04737   0.19182   1.86252 
 C                     2.99222  -0.40879   1.03827 
 C                     2.61201  -0.86663  -0.21815 
 C                     1.29752  -0.72678  -0.64525 
 H                     0.00951   0.82798   2.07262 
 H                     2.33553   0.56179   2.84134 
 H                     4.01825  -0.51965   1.37363 
 H                     3.33989  -1.34395  -0.86652 
 H                     1.00502  -1.1109   -1.61774 
 C                    -1.06565   0.02156  -0.28187 
 C                    -1.36416   0.44435  -1.5829 
 C                    -2.67052   0.58284  -2.01189 
 C                    -3.72824   0.29891  -1.14554 
 C                    -3.45385  -0.12505   0.15212 
 C                    -2.13165  -0.25771   0.568 
 H                    -0.55549   0.69057  -2.26416 
 H                    -2.89766   0.92067  -3.01692 
 O                    -4.97427   0.46552  -1.65584 
 H                    -4.24913  -0.36461   0.84724 
 H                    -1.93432  -0.61131   1.57537 
 C                    -6.07853   0.1833   -0.82785 
 H                    -6.96372   0.38425  -1.42869 
 H                    -6.08569  -0.86689  -0.51541 
 H                    -6.09108   0.82715   0.05859 
 
 NAtoms=     26 NQM=       26 NQMF=       0 NMMI=      0 NMMIF=      0
                NMic=       0 NMicF=      0.
                    Isotopes and Nuclear Properties:
 (Nuclear quadrupole moments (NQMom) in fm**2, nuclear magnetic moments (NMagM)
  in nuclear magnetons)

  Atom         1           2           3           4           5           6           7           8           9          10
 IAtWgt=          12          12          12          12          12          12           1           1           1           1
 AtmWgt=  12.0000000  12.0000000  12.0000000  12.0000000  12.0000000  12.0000000   1.0078250   1.0078250   1.0078250   1.0078250
 NucSpn=           0           0           0           0           0           0           1           1           1           1
 AtZEff=   0.0000000   0.0000000   0.0000000   0.0000000   0.0000000   0.0000000   0.0000000   0.0000000   0.0000000   0.0000000
 NQMom=    0.0000000   0.0000000   0.0000000   0.0000000   0.0000000   0.0000000   0.0000000   0.0000000   0.0000000   0.0000000
 NMagM=    0.0000000   0.0000000   0.0000000   0.0000000   0.0000000   0.0000000   2.7928460   2.7928460   2.7928460   2.7928460
 AtZNuc=   6.0000000   6.0000000   6.0000000   6.0000000   6.0000000   6.0000000   1.0000000   1.0000000   1.0000000   1.0000000

  Atom        11          12          13          14          15          16          17          18          19          20
 IAtWgt=           1          12          12          12          12          12          12           1           1          16
 AtmWgt=   1.0078250  12.0000000  12.0000000  12.0000000  12.0000000  12.0000000  12.0000000   1.0078250   1.0078250  15.9949146
 NucSpn=           1           0           0           0           0           0           0           1           1           0
 AtZEff=   0.0000000   0.0000000   0.0000000   0.0000000   0.0000000   0.0000000   0.0000000   0.0000000   0.0000000   0.0000000
 NQMom=    0.0000000   0.0000000   0.0000000   0.0000000   0.0000000   0.0000000   0.0000000   0.0000000   0.0000000   0.0000000
 NMagM=    2.7928460   0.0000000   0.0000000   0.0000000   0.0000000   0.0000000   0.0000000   2.7928460   2.7928460   0.0000000
 AtZNuc=   1.0000000   6.0000000   6.0000000   6.0000000   6.0000000   6.0000000   6.0000000   1.0000000   1.0000000   8.0000000

  Atom        21          22          23          24          25          26
 IAtWgt=           1           1          12           1           1           1
 AtmWgt=   1.0078250   1.0078250  12.0000000   1.0078250   1.0078250   1.0078250
 NucSpn=           1           1           0           1           1           1
 AtZEff=   0.0000000   0.0000000   0.0000000   0.0000000   0.0000000   0.0000000
 NQMom=    0.0000000   0.0000000   0.0000000   0.0000000   0.0000000   0.0000000
 NMagM=    2.7928460   2.7928460   0.0000000   2.7928460   2.7928460   2.7928460
 AtZNuc=   1.0000000   1.0000000   6.0000000   1.0000000   1.0000000   1.0000000
 Leave Link  101 at Mon Oct  2 15:04:26 2017, MaxMem=  1879048192 cpu:         0.1
 (Enter /share/apps/gaussian/g09_D01/g09/l202.exe)
                          Input orientation:                          
 ---------------------------------------------------------------------
 Center     Atomic      Atomic             Coordinates (Angstroms)
 Number     Number       Type             X           Y           Z
 ---------------------------------------------------------------------
      1          6           0        0.338094   -0.125044    0.173504
      2          6           0        0.734141    0.334048    1.432469
      3          6           0        2.047373    0.191817    1.862515
      4          6           0        2.992216   -0.408786    1.038274
      5          6           0        2.612008   -0.866625   -0.218145
      6          6           0        1.297520   -0.726775   -0.645246
      7          1           0        0.009508    0.827982    2.072616
      8          1           0        2.335530    0.561789    2.841340
      9          1           0        4.018250   -0.519645    1.373626
     10          1           0        3.339886   -1.343946   -0.866516
     11          1           0        1.005020   -1.110903   -1.617741
     12          6           0       -1.065646    0.021555   -0.281874
     13          6           0       -1.364159    0.444351   -1.582904
     14          6           0       -2.670517    0.582842   -2.011890
     15          6           0       -3.728244    0.298909   -1.145539
     16          6           0       -3.453846   -0.125054    0.152119
     17          6           0       -2.131650   -0.257713    0.568001
     18          1           0       -0.555488    0.690574   -2.264157
     19          1           0       -2.897661    0.920667   -3.016917
     20          8           0       -4.974270    0.465516   -1.655844
     21          1           0       -4.249133   -0.364611    0.847237
     22          1           0       -1.934317   -0.611307    1.575374
     23          6           0       -6.078529    0.183301   -0.827847
     24          1           0       -6.963716    0.384245   -1.428693
     25          1           0       -6.085692   -0.866891   -0.515414
     26          1           0       -6.091076    0.827147    0.058593
 ---------------------------------------------------------------------
                    Distance matrix (angstroms):
                    1          2          3          4          5
     1  C    0.000000
     2  C    1.397359   0.000000
     3  C    2.423797   1.389154   0.000000
     4  C    2.805833   2.409584   1.390261   0.000000
     5  C    2.423637   2.773540   2.401720   1.390239   0.000000
     6  C    1.397473   2.399925   2.773978   2.409845   1.389191
     7  H    2.150082   1.085749   2.145167   3.390576   3.859052
     8  H    3.402769   2.145048   1.085363   2.150418   3.387810
     9  H    3.890958   3.393763   2.151638   1.085125   2.152126
    10  H    3.402664   3.858873   3.387738   2.150261   1.085369
    11  H    2.150643   3.386006   3.859503   3.390624   2.144983
    12  C    1.483019   2.505166   3.783950   4.288849   3.783922
    13  C    2.511343   3.675256   4.855228   5.155232   4.403536
    14  C    3.785339   4.849454   6.117385   6.507947   5.763987
    15  C    4.295895   5.153663   6.512880   7.101722   6.512858
    16  C    3.792000   4.403329   5.769686   6.512871   6.122222
    17  C    2.504569   3.051269   4.397963   5.147619   4.846761
    18  H    2.721381   3.931323   4.904392   4.969995   4.079714
    19  H    4.662876   5.773313   6.985230   7.273422   6.433039
    20  O    5.649468   6.491604   7.858577   8.455033   7.835381
    21  H    4.642624   5.065929   6.402061   7.244003   6.961488
    22  H    2.713953   2.834570   4.072016   4.959861   4.893973
    23  C    6.501602   7.179431   8.559696   9.279622   8.774937
    24  H    7.492853   8.212537   9.595249  10.287634   9.732656
    25  H    6.503074   7.193513   8.539447   9.221292   8.702779
    26  H    6.500315   6.979561   8.360151   9.219192   8.870689
                    6          7          8          9         10
     6  C    0.000000
     7  H    3.385708   0.000000
     8  H    3.859293   2.464178   0.000000
     9  H    3.394277   4.286572   2.480974   0.000000
    10  H    2.145022   4.944410   4.288211   2.481509   0.000000
    11  H    1.085752   4.285913   4.944852   4.286889   2.463787
    12  C    2.505312   2.711071   4.649120   5.373972   4.649205
    13  C    3.055368   3.923896   5.768486   6.216163   5.083233
    14  C    4.396377   4.891402   6.972431   7.577387   6.414775
    15  C    5.153700   4.960567   7.261795   8.186843   7.261907
    16  C    4.855238   4.073255   6.420322   7.581557   6.976970
    17  C    3.667587   2.833224   5.078912   6.207971   5.759813
    18  H    2.839611   4.375580   5.868617   5.968013   4.611574
    19  H    5.092979   5.862045   7.863476   8.317523   6.975650
    20  O    6.463607   6.234648   8.582955   9.540107   8.545313
    21  H    5.755348   4.589102   6.942078   8.285574   7.841509
    22  H    3.922914   2.469263   4.605477   5.956690   5.858055
    23  C    7.434224   6.774400   9.187087  10.357874   9.541516
    24  H    8.372346   7.815492  10.234289  11.369854  10.462643
    25  H    7.385683   6.835346   9.177467  10.284877   9.444171
    26  H    7.582969   6.424439   8.878163  10.283075   9.721755
                   11         12         13         14         15
    11  H    0.000000
    12  C    2.711948   0.000000
    13  C    2.834261   1.400195   0.000000
    14  C    4.066165   2.425615   1.381948   0.000000
    15  C    4.961283   2.812876   2.408597   1.396413   0.000000
    16  C    4.897529   2.431737   2.775125   2.407832   1.392464
    17  C    3.917155   1.391633   2.389211   2.766360   2.407314
    18  H    2.469485   2.153438   1.085670   2.132743   3.386900
    19  H    4.616913   3.412498   2.152881   1.084343   2.139745
    20  O    6.183725   4.166802   3.610910   2.334055   1.356742
    21  H    5.851426   3.399795   3.857859   3.400633   2.163964
    22  H    4.368670   2.145804   3.378493   3.851811   3.383790
    23  C    7.244002   5.045121   4.781584   3.629895   2.374475
    24  H    8.109991   6.019466   5.602003   4.337178   3.248959
    25  H    7.180032   5.103405   5.015153   4.000573   2.704387
    26  H    7.544582   5.100965   5.018445   4.005847   2.704061
                   16         17         18         19         20
    16  C    0.000000
    17  C    1.392393   0.000000
    18  H    3.860585   3.377078   0.000000
    19  H    3.383144   3.850583   2.470904   0.000000
    20  O    2.434993   3.680901   4.466131   2.524280   0.000000
    21  H    1.083078   2.138489   4.943400   4.290700   2.735023
    22  H    2.138005   1.085711   4.282296   4.936002   4.565264
    23  C    2.818577   4.209601   5.729249   3.931114   1.408763
    24  H    3.882981   5.267614   6.469716   4.398069   2.004020
    25  H    2.814700   4.144796   6.005577   4.429043   2.076330
    26  H    2.805426   4.136843   6.004711   4.434570   2.077818
                   21         22         23         24         25
    21  H    0.000000
    22  H    2.439142   0.000000
    23  C    2.540237   4.856065   0.000000
    24  H    3.620719   5.942255   1.088554   0.000000
    25  H    2.341378   4.655173   1.095705   1.780547   0.000000
    26  H    2.331309   4.652786   1.095660   1.780360   1.788653
                   26
    26  H    0.000000
 Symmetry turned off by external request.
 Stoichiometry    C13H12O
 Framework group  C1[X(C13H12O)]
 Deg. of freedom    72
 Full point group                 C1      NOp   1
 Rotational constants (GHZ):      2.6299372      0.3066159      0.2831323
 Leave Link  202 at Mon Oct  2 15:04:26 2017, MaxMem=  1879048192 cpu:         0.0
 (Enter /share/apps/gaussian/g09_D01/g09/l301.exe)
 Standard basis: 6-311+G(d) (5D, 7F)
 Ernie: Thresh=  0.10000D-02 Tol=  0.10000D-05 Strict=F.
   344 basis functions,   564 primitive gaussians,   358 cartesian basis functions
    49 alpha electrons       49 beta electrons
       nuclear repulsion energy       788.0153866210 Hartrees.
 IExCor= 4639 DFT=T Ex+Corr=wB97XD ExCW=0 ScaHFX=  1.000000
 ScaDFX=  1.000000  1.000000  1.000000  1.000000 ScalE2=  1.000000  1.000000
 IRadAn=      0 IRanWt=     -1 IRanGd=            0 ICorTp=0 IEmpDi=121
  HFx wShort=  0.000000 wLong=  0.200000 cFull=  0.222036 cShort=  0.000000 cLong=  0.777964
  DFx wShort=  0.000000 wLong=  0.200000 cFull=  0.000000 cShort=  0.000000 cLong=  1.000000
 NAtoms=   26 NActive=   26 NUniq=   26 SFac= 1.00D+00 NAtFMM=   60 NAOKFM=F Big=F
 Integral buffers will be    131072 words long.
 Raffenetti 1 integral format.
 Two-electron integral symmetry is turned off.
 R6Disp:  Grimme-D2 Dispersion energy=       -0.0149545345 Hartrees.
 Nuclear repulsion after empirical dispersion term =      788.0004320865 Hartrees.
 Leave Link  301 at Mon Oct  2 15:04:27 2017, MaxMem=  1879048192 cpu:         0.1
 (Enter /share/apps/gaussian/g09_D01/g09/l302.exe)
 NPDir=0 NMtPBC=     1 NCelOv=     1 NCel=       1 NClECP=     1 NCelD=      1
         NCelK=      1 NCelE2=     1 NClLst=     1 CellRange=     0.0.
 One-electron integrals computed using PRISM.
 NBasis=   344 RedAO= T EigKep=  1.02D-06  NBF=   344
 NBsUse=   343 1.00D-06 EigRej=  5.55D-07 NBFU=   343
 Precomputing XC quadrature grid using
 IXCGrd= 4 IRadAn=           0 IRanWt=          -1 IRanGd=           0 AccXCQ= 0.00D+00.
 Generated NRdTot=       0 NPtTot=           0 NUsed=           0 NTot=          32
 NSgBfM=   356   357   357   357   357 MxSgAt=    26 MxSgA2=    26.
 Leave Link  302 at Mon Oct  2 15:04:29 2017, MaxMem=  1879048192 cpu:         2.0
 (Enter /share/apps/gaussian/g09_D01/g09/l308.exe)
 Leave Link  308 at Mon Oct  2 15:04:30 2017, MaxMem=  1879048192 cpu:         0.1
 (Enter /share/apps/gaussian/g09_D01/g09/l303.exe)
 DipDrv:  MaxL=1.
 Leave Link  303 at Mon Oct  2 15:04:30 2017, MaxMem=  1879048192 cpu:         0.1
 (Enter /share/apps/gaussian/g09_D01/g09/l401.exe)
 ExpMin= 4.38D-02 ExpMax= 8.59D+03 ExpMxC= 1.30D+03 IAcc=2 IRadAn=         4 AccDes= 0.00D+00
 Harris functional with IExCor= 4639 and IRadAn=       4 diagonalized for initial guess.
 HarFok:  IExCor= 4639 AccDes= 0.00D+00 IRadAn=         4 IDoV= 1 UseB2=F ITyADJ=14
 ICtDFT=  3500011 ScaDFX=  1.000000  1.000000  1.000000  1.000000
 FoFCou: FMM=F IPFlag=           0 FMFlag=      100000 FMFlg1=           0
         NFxFlg=           0 DoJE=T BraDBF=F KetDBF=T FulRan=T
         wScrn=  0.000000 ICntrl=     500 IOpCl=  0 I1Cent=   200000004 NGrid=           0
         NMat0=    1 NMatS0=      1 NMatT0=    0 NMatD0=    1 NMtDS0=    0 NMtDT0=    0
 Symmetry not used in FoFCou.
 Harris En= -551.971988022650    
 JPrj=0 DoOrth=F DoCkMO=F.
 Leave Link  401 at Mon Oct  2 15:04:38 2017, MaxMem=  1879048192 cpu:         8.1
 (Enter /share/apps/gaussian/g09_D01/g09/l502.exe)
 Closed shell SCF:
 Using DIIS extrapolation, IDIIS=  1040.
 Two-electron integral symmetry not used.
 IVT=      407390 IEndB=      407390 NGot=  1879048192 MDV=  1878785965
 LenX=  1878785965 LenY=  1878657360
 Requested convergence on RMS density matrix=1.00D-08 within 128 cycles.
 Requested convergence on MAX density matrix=1.00D-06.
 Requested convergence on             energy=1.00D-06.
 No special actions if energy rises.
 Fock matrices will be formed incrementally for  20 cycles.

 Cycle   1  Pass 1  IDiag  1:
 FoFJK:  IHMeth= 1 ICntrl=       0 DoSepK=T KAlg= 0 I1Cent=   0 FoldK=F
 IRaf=         1 NMat=   1 IRICut=       1 DoRegI=T DoRafI=F ISym2E= 0.
 FoFCou: FMM=F IPFlag=           0 FMFlag=      100000 FMFlg1=           0
         NFxFlg=           0 DoJE=T BraDBF=F KetDBF=F FulRan=T
         wScrn=  0.000000 ICntrl=     500 IOpCl=  0 I1Cent=           0 NGrid=           0
         NMat0=    1 NMatS0=      1 NMatT0=    0 NMatD0=    1 NMtDS0=    0 NMtDT0=    0
 Symmetry not used in FoFCou.
 E= -577.576848595086    
 DIIS: error= 8.47D-02 at cycle   1 NSaved=   1.
 NSaved= 1 IEnMin= 1 EnMin= -577.576848595086     IErMin= 1 ErrMin= 8.47D-02
 ErrMax= 8.47D-02  0.00D+00 EMaxC= 1.00D-01 BMatC= 1.25D+00 BMatP= 1.25D+00
 IDIUse=3 WtCom= 1.53D-01 WtEn= 8.47D-01
 Coeff-Com:  0.100D+01
 Coeff-En:   0.100D+01
 Coeff:      0.100D+01
 Gap=     0.407 Goal=   None    Shift=    0.000
 GapD=    0.407 DampG=2.000 DampE=0.500 DampFc=1.0000 IDamp=-1.
 RMSDP=6.83D-02 MaxDP=8.16D+00              OVMax= 1.13D-01

 Cycle   2  Pass 1  IDiag  1:
 RMSU=  1.72D-02    CP:  5.34D-01
 E= -577.639781222309     Delta-E=       -0.062932627223 Rises=F Damp=F
 DIIS: error= 2.52D-02 at cycle   2 NSaved=   2.
 NSaved= 2 IEnMin= 2 EnMin= -577.639781222309     IErMin= 2 ErrMin= 2.52D-02
 ErrMax= 2.52D-02  0.00D+00 EMaxC= 1.00D-01 BMatC= 1.65D-01 BMatP= 1.25D+00
 IDIUse=3 WtCom= 7.48D-01 WtEn= 2.52D-01
 Coeff-Com:  0.193D+00 0.807D+00
 Coeff-En:   0.347D+00 0.653D+00
 Coeff:      0.231D+00 0.769D+00
 Gap=     0.353 Goal=   None    Shift=    0.000
 RMSDP=1.47D-02 MaxDP=1.09D+00 DE=-6.29D-02 OVMax= 1.78D-01

 Cycle   3  Pass 1  IDiag  1:
 RMSU=  9.88D-03    CP:  5.61D-01  4.12D-01
 E= -577.685413976720     Delta-E=       -0.045632754411 Rises=F Damp=F
 DIIS: error= 2.14D-02 at cycle   3 NSaved=   3.
 NSaved= 3 IEnMin= 3 EnMin= -577.685413976720     IErMin= 3 ErrMin= 2.14D-02
 ErrMax= 2.14D-02  0.00D+00 EMaxC= 1.00D-01 BMatC= 9.25D-02 BMatP= 1.65D-01
 IDIUse=3 WtCom= 7.86D-01 WtEn= 2.14D-01
 Coeff-Com:  0.250D-01 0.429D+00 0.546D+00
 Coeff-En:   0.000D+00 0.384D+00 0.616D+00
 Coeff:      0.196D-01 0.419D+00 0.561D+00
 Gap=     0.355 Goal=   None    Shift=    0.000
 RMSDP=1.02D-02 MaxDP=8.98D-01 DE=-4.56D-02 OVMax= 6.65D-02

 Cycle   4  Pass 1  IDiag  1:
 RMSU=  3.15D-03    CP:  5.16D-01  6.60D-01  4.02D-01
 E= -577.752073354810     Delta-E=       -0.066659378090 Rises=F Damp=F
 DIIS: error= 1.87D-03 at cycle   4 NSaved=   4.
 NSaved= 4 IEnMin= 4 EnMin= -577.752073354810     IErMin= 4 ErrMin= 1.87D-03
 ErrMax= 1.87D-03  0.00D+00 EMaxC= 1.00D-01 BMatC= 1.05D-03 BMatP= 9.25D-02
 IDIUse=3 WtCom= 9.81D-01 WtEn= 1.87D-02
 Coeff-Com:  0.579D-02 0.106D+00 0.187D+00 0.701D+00
 Coeff-En:   0.000D+00 0.000D+00 0.000D+00 0.100D+01
 Coeff:      0.568D-02 0.104D+00 0.184D+00 0.706D+00
 Gap=     0.324 Goal=   None    Shift=    0.000
 RMSDP=1.24D-03 MaxDP=1.31D-01 DE=-6.67D-02 OVMax= 7.11D-03

 Cycle   5  Pass 1  IDiag  1:
 RMSU=  7.39D-04    CP:  5.12D-01  6.72D-01  4.75D-01  8.93D-01
 E= -577.752798065362     Delta-E=       -0.000724710552 Rises=F Damp=F
 DIIS: error= 5.94D-04 at cycle   5 NSaved=   5.
 NSaved= 5 IEnMin= 5 EnMin= -577.752798065362     IErMin= 5 ErrMin= 5.94D-04
 ErrMax= 5.94D-04  0.00D+00 EMaxC= 1.00D-01 BMatC= 1.07D-04 BMatP= 1.05D-03
 IDIUse=3 WtCom= 9.94D-01 WtEn= 5.94D-03
 Coeff-Com: -0.133D-02-0.217D-01-0.521D-03 0.280D+00 0.744D+00
 Coeff-En:   0.000D+00 0.000D+00 0.000D+00 0.000D+00 0.100D+01
 Coeff:     -0.132D-02-0.216D-01-0.517D-03 0.278D+00 0.745D+00
 Gap=     0.324 Goal=   None    Shift=    0.000
 RMSDP=4.97D-04 MaxDP=3.50D-02 DE=-7.25D-04 OVMax= 3.66D-03

 Cycle   6  Pass 1  IDiag  1:
 RMSU=  3.43D-04    CP:  5.12D-01  6.63D-01  4.57D-01  9.50D-01  7.23D-01
 E= -577.752906857910     Delta-E=       -0.000108792548 Rises=F Damp=F
 DIIS: error= 2.40D-04 at cycle   6 NSaved=   6.
 NSaved= 6 IEnMin= 6 EnMin= -577.752906857910     IErMin= 6 ErrMin= 2.40D-04
 ErrMax= 2.40D-04  0.00D+00 EMaxC= 1.00D-01 BMatC= 8.54D-06 BMatP= 1.07D-04
 IDIUse=3 WtCom= 9.98D-01 WtEn= 2.40D-03
 Coeff-Com: -0.862D-03-0.136D-01-0.785D-02 0.831D-01 0.312D+00 0.627D+00
 Coeff-En:   0.000D+00 0.000D+00 0.000D+00 0.000D+00 0.000D+00 0.100D+01
 Coeff:     -0.860D-03-0.136D-01-0.783D-02 0.829D-01 0.312D+00 0.628D+00
 Gap=     0.324 Goal=   None    Shift=    0.000
 RMSDP=1.24D-04 MaxDP=8.89D-03 DE=-1.09D-04 OVMax= 1.08D-03

 Cycle   7  Pass 1  IDiag  1:
 RMSU=  7.99D-05    CP:  5.12D-01  6.62D-01  4.56D-01  9.73D-01  7.94D-01
                    CP:  9.81D-01
 E= -577.752917336180     Delta-E=       -0.000010478270 Rises=F Damp=F
 DIIS: error= 8.70D-05 at cycle   7 NSaved=   7.
 NSaved= 7 IEnMin= 7 EnMin= -577.752917336180     IErMin= 7 ErrMin= 8.70D-05
 ErrMax= 8.70D-05  0.00D+00 EMaxC= 1.00D-01 BMatC= 9.31D-07 BMatP= 8.54D-06
 IDIUse=1 WtCom= 1.00D+00 WtEn= 0.00D+00
 Coeff-Com: -0.590D-04-0.131D-02-0.349D-02-0.280D-01-0.458D-01 0.196D+00
 Coeff-Com:  0.883D+00
 Coeff:     -0.590D-04-0.131D-02-0.349D-02-0.280D-01-0.458D-01 0.196D+00
 Coeff:      0.883D+00
 Gap=     0.324 Goal=   None    Shift=    0.000
 RMSDP=7.22D-05 MaxDP=7.50D-03 DE=-1.05D-05 OVMax= 9.19D-04

 Cycle   8  Pass 1  IDiag  1:
 RMSU=  2.61D-05    CP:  5.12D-01  6.61D-01  4.55D-01  9.75D-01  8.05D-01
                    CP:  1.13D+00  1.07D+00
 E= -577.752919257172     Delta-E=       -0.000001920992 Rises=F Damp=F
 DIIS: error= 3.53D-05 at cycle   8 NSaved=   8.
 NSaved= 8 IEnMin= 8 EnMin= -577.752919257172     IErMin= 8 ErrMin= 3.53D-05
 ErrMax= 3.53D-05  0.00D+00 EMaxC= 1.00D-01 BMatC= 1.59D-07 BMatP= 9.31D-07
 IDIUse=1 WtCom= 1.00D+00 WtEn= 0.00D+00
 Coeff-Com:  0.614D-04 0.665D-03-0.522D-03-0.190D-01-0.499D-01 0.124D-01
 Coeff-Com:  0.361D+00 0.695D+00
 Coeff:      0.614D-04 0.665D-03-0.522D-03-0.190D-01-0.499D-01 0.124D-01
 Coeff:      0.361D+00 0.695D+00
 Gap=     0.324 Goal=   None    Shift=    0.000
 RMSDP=2.30D-05 MaxDP=2.13D-03 DE=-1.92D-06 OVMax= 2.00D-04

 Cycle   9  Pass 1  IDiag  1:
 RMSU=  1.33D-05    CP:  5.12D-01  6.61D-01  4.54D-01  9.75D-01  7.99D-01
                    CP:  1.16D+00  1.12D+00  7.69D-01
 E= -577.752919506592     Delta-E=       -0.000000249421 Rises=F Damp=F
 DIIS: error= 6.67D-06 at cycle   9 NSaved=   9.
 NSaved= 9 IEnMin= 9 EnMin= -577.752919506592     IErMin= 9 ErrMin= 6.67D-06
 ErrMax= 6.67D-06  0.00D+00 EMaxC= 1.00D-01 BMatC= 1.52D-08 BMatP= 1.59D-07
 IDIUse=1 WtCom= 1.00D+00 WtEn= 0.00D+00
 Coeff-Com:  0.216D-04 0.368D-03 0.562D-03-0.362D-03-0.710D-02-0.340D-01
 Coeff-Com: -0.479D-01 0.134D+00 0.955D+00
 Coeff:      0.216D-04 0.368D-03 0.562D-03-0.362D-03-0.710D-02-0.340D-01
 Coeff:     -0.479D-01 0.134D+00 0.955D+00
 Gap=     0.324 Goal=   None    Shift=    0.000
 RMSDP=1.69D-05 MaxDP=2.22D-03 DE=-2.49D-07 OVMax= 1.57D-04

 Cycle  10  Pass 1  IDiag  1:
 RMSU=  3.94D-06    CP:  5.12D-01  6.61D-01  4.54D-01  9.75D-01  7.95D-01
                    CP:  1.18D+00  1.15D+00  7.80D-01  1.27D+00
 E= -577.752919545996     Delta-E=       -0.000000039403 Rises=F Damp=F
 DIIS: error= 5.50D-06 at cycle  10 NSaved=  10.
 NSaved=10 IEnMin=10 EnMin= -577.752919545996     IErMin=10 ErrMin= 5.50D-06
 ErrMax= 5.50D-06  0.00D+00 EMaxC= 1.00D-01 BMatC= 2.04D-09 BMatP= 1.52D-08
 IDIUse=1 WtCom= 1.00D+00 WtEn= 0.00D+00
 Coeff-Com:  0.119D-05 0.627D-04 0.271D-03 0.207D-02 0.282D-02-0.116D-01
 Coeff-Com: -0.464D-01-0.462D-01 0.286D+00 0.813D+00
 Coeff:      0.119D-05 0.627D-04 0.271D-03 0.207D-02 0.282D-02-0.116D-01
 Coeff:     -0.464D-01-0.462D-01 0.286D+00 0.813D+00
 Gap=     0.324 Goal=   None    Shift=    0.000
 RMSDP=2.73D-06 MaxDP=2.44D-04 DE=-3.94D-08 OVMax= 4.09D-05

 Cycle  11  Pass 1  IDiag  1:
 RMSU=  1.08D-06    CP:  5.12D-01  6.61D-01  4.54D-01  9.75D-01  7.95D-01
                    CP:  1.18D+00  1.15D+00  7.76D-01  1.38D+00  1.06D+00
 E= -577.752919550353     Delta-E=       -0.000000004357 Rises=F Damp=F
 DIIS: error= 8.10D-07 at cycle  11 NSaved=  11.
 NSaved=11 IEnMin=11 EnMin= -577.752919550353     IErMin=11 ErrMin= 8.10D-07
 ErrMax= 8.10D-07  0.00D+00 EMaxC= 1.00D-01 BMatC= 4.19D-10 BMatP= 2.04D-09
 IDIUse=1 WtCom= 1.00D+00 WtEn= 0.00D+00
 Coeff-Com: -0.177D-05-0.267D-04 0.199D-04 0.893D-03 0.194D-02 0.675D-03
 Coeff-Com: -0.731D-02-0.394D-01-0.479D-01 0.305D+00 0.786D+00
 Coeff:     -0.177D-05-0.267D-04 0.199D-04 0.893D-03 0.194D-02 0.675D-03
 Coeff:     -0.731D-02-0.394D-01-0.479D-01 0.305D+00 0.786D+00
 Gap=     0.324 Goal=   None    Shift=    0.000
 RMSDP=1.66D-06 MaxDP=1.57D-04 DE=-4.36D-09 OVMax= 1.69D-05

 Cycle  12  Pass 1  IDiag  1:
 RMSU=  5.52D-07    CP:  5.12D-01  6.61D-01  4.54D-01  9.75D-01  7.93D-01
                    CP:  1.18D+00  1.15D+00  7.52D-01  1.45D+00  1.16D+00
                    CP:  1.16D+00
 E= -577.752919551192     Delta-E=       -0.000000000839 Rises=F Damp=F
 DIIS: error= 4.48D-07 at cycle  12 NSaved=  12.
 NSaved=12 IEnMin=12 EnMin= -577.752919551192     IErMin=12 ErrMin= 4.48D-07
 ErrMax= 4.48D-07  0.00D+00 EMaxC= 1.00D-01 BMatC= 3.44D-11 BMatP= 4.19D-10
 IDIUse=1 WtCom= 1.00D+00 WtEn= 0.00D+00
 Coeff-Com: -0.447D-06-0.132D-04-0.354D-04-0.101D-03-0.105D-03 0.174D-02
 Coeff-Com:  0.620D-02-0.204D-02-0.582D-01-0.486D-01 0.144D+00 0.957D+00
 Coeff:     -0.447D-06-0.132D-04-0.354D-04-0.101D-03-0.105D-03 0.174D-02
 Coeff:      0.620D-02-0.204D-02-0.582D-01-0.486D-01 0.144D+00 0.957D+00
 Gap=     0.324 Goal=   None    Shift=    0.000
 RMSDP=7.11D-07 MaxDP=7.62D-05 DE=-8.39D-10 OVMax= 5.87D-06

 Cycle  13  Pass 1  IDiag  1:
 RMSU=  1.80D-07    CP:  5.12D-01  6.61D-01  4.54D-01  9.75D-01  7.93D-01
                    CP:  1.18D+00  1.16D+00  7.40D-01  1.47D+00  1.20D+00
                    CP:  1.33D+00  1.20D+00
 E= -577.752919551248     Delta-E=       -0.000000000056 Rises=F Damp=F
 DIIS: error= 1.58D-07 at cycle  13 NSaved=  13.
 NSaved=13 IEnMin=13 EnMin= -577.752919551248     IErMin=13 ErrMin= 1.58D-07
 ErrMax= 1.58D-07  0.00D+00 EMaxC= 1.00D-01 BMatC= 6.03D-12 BMatP= 3.44D-11
 IDIUse=1 WtCom= 1.00D+00 WtEn= 0.00D+00
 Coeff-Com: -0.109D-07-0.192D-05-0.143D-04-0.136D-03-0.282D-03 0.520D-03
 Coeff-Com:  0.316D-02 0.399D-02-0.152D-01-0.456D-01-0.368D-01 0.358D+00
 Coeff-Com:  0.732D+00
 Coeff:     -0.109D-07-0.192D-05-0.143D-04-0.136D-03-0.282D-03 0.520D-03
 Coeff:      0.316D-02 0.399D-02-0.152D-01-0.456D-01-0.368D-01 0.358D+00
 Coeff:      0.732D+00
 Gap=     0.324 Goal=   None    Shift=    0.000
 RMSDP=1.10D-07 MaxDP=9.09D-06 DE=-5.62D-11 OVMax= 1.43D-06

 Cycle  14  Pass 1  IDiag  1:
 RMSU=  4.45D-08    CP:  5.12D-01  6.61D-01  4.54D-01  9.75D-01  7.93D-01
                    CP:  1.18D+00  1.16D+00  7.39D-01  1.47D+00  1.20D+00
                    CP:  1.33D+00  1.27D+00  1.17D+00
 E= -577.752919551259     Delta-E=       -0.000000000011 Rises=F Damp=F
 DIIS: error= 4.09D-08 at cycle  14 NSaved=  14.
 NSaved=14 IEnMin=14 EnMin= -577.752919551259     IErMin=14 ErrMin= 4.09D-08
 ErrMax= 4.09D-08  0.00D+00 EMaxC= 1.00D-01 BMatC= 6.72D-13 BMatP= 6.03D-12
 IDIUse=1 WtCom= 1.00D+00 WtEn= 0.00D+00
 Coeff-Com: -0.895D-08-0.723D-07-0.311D-06-0.224D-04-0.536D-04-0.556D-04
 Coeff-Com:  0.995D-05 0.124D-02 0.227D-02-0.506D-02-0.297D-01-0.216D-01
 Coeff-Com:  0.223D+00 0.830D+00
 Coeff:     -0.895D-08-0.723D-07-0.311D-06-0.224D-04-0.536D-04-0.556D-04
 Coeff:      0.995D-05 0.124D-02 0.227D-02-0.506D-02-0.297D-01-0.216D-01
 Coeff:      0.223D+00 0.830D+00
 Gap=     0.324 Goal=   None    Shift=    0.000
 RMSDP=6.39D-08 MaxDP=4.59D-06 DE=-1.11D-11 OVMax= 4.61D-07

 Cycle  15  Pass 1  IDiag  1:
 RMSU=  1.68D-08    CP:  5.12D-01  6.61D-01  4.54D-01  9.75D-01  7.93D-01
                    CP:  1.18D+00  1.16D+00  7.38D-01  1.47D+00  1.20D+00
                    CP:  1.34D+00  1.29D+00  1.33D+00  1.10D+00
 E= -577.752919551251     Delta-E=        0.000000000008 Rises=F Damp=F
 DIIS: error= 2.41D-08 at cycle  15 NSaved=  15.
 NSaved=15 IEnMin=14 EnMin= -577.752919551259     IErMin=15 ErrMin= 2.41D-08
 ErrMax= 2.41D-08  0.00D+00 EMaxC= 1.00D-01 BMatC= 6.06D-14 BMatP= 6.72D-13
 IDIUse=1 WtCom= 1.00D+00 WtEn= 0.00D+00
 Coeff-Com: -0.614D-08 0.711D-07 0.118D-05 0.514D-05 0.879D-05-0.667D-04
 Coeff-Com: -0.313D-03 0.966D-04 0.211D-02 0.258D-02-0.813D-02-0.416D-01
 Coeff-Com:  0.185D-01 0.288D+00 0.739D+00
 Coeff:     -0.614D-08 0.711D-07 0.118D-05 0.514D-05 0.879D-05-0.667D-04
 Coeff:     -0.313D-03 0.966D-04 0.211D-02 0.258D-02-0.813D-02-0.416D-01
 Coeff:      0.185D-01 0.288D+00 0.739D+00
 Gap=     0.324 Goal=   None    Shift=    0.000
 RMSDP=2.50D-08 MaxDP=3.30D-06 DE= 7.96D-12 OVMax= 1.41D-07

 Cycle  16  Pass 1  IDiag  1:
 RMSU=  5.81D-09    CP:  5.12D-01  6.61D-01  4.54D-01  9.75D-01  7.93D-01
                    CP:  1.18D+00  1.16D+00  7.38D-01  1.47D+00  1.20D+00
                    CP:  1.33D+00  1.29D+00  1.36D+00  1.22D+00  1.28D+00
 E= -577.752919551220     Delta-E=        0.000000000031 Rises=F Damp=F
 DIIS: error= 3.76D-09 at cycle  16 NSaved=  16.
 NSaved=16 IEnMin=14 EnMin= -577.752919551259     IErMin=16 ErrMin= 3.76D-09
 ErrMax= 3.76D-09  0.00D+00 EMaxC= 1.00D-01 BMatC= 6.70D-15 BMatP= 6.06D-14
 IDIUse=1 WtCom= 1.00D+00 WtEn= 0.00D+00
 Coeff-Com:  0.147D-08 0.753D-07 0.332D-06 0.370D-05 0.766D-05-0.840D-05
 Coeff-Com: -0.716D-04-0.892D-04 0.233D-03 0.138D-02 0.151D-02-0.730D-02
 Coeff-Com: -0.215D-01-0.364D-01 0.213D+00 0.849D+00
 Coeff:      0.147D-08 0.753D-07 0.332D-06 0.370D-05 0.766D-05-0.840D-05
 Coeff:     -0.716D-04-0.892D-04 0.233D-03 0.138D-02 0.151D-02-0.730D-02
 Coeff:     -0.215D-01-0.364D-01 0.213D+00 0.849D+00
 Gap=     0.324 Goal=   None    Shift=    0.000
 RMSDP=7.35D-09 MaxDP=6.04D-07 DE= 3.07D-11 OVMax= 5.20D-08

 SCF Done:  E(RwB97XD) =  -577.752919551     A.U. after   16 cycles
            NFock= 16  Conv=0.73D-08     -V/T= 2.0040
 KE= 5.754363995382D+02 PE=-2.919446686811D+03 EE= 9.782569356348D+02
 Leave Link  502 at Mon Oct  2 15:11:54 2017, MaxMem=  1879048192 cpu:       644.4
 (Enter /share/apps/gaussian/g09_D01/g09/l801.exe)
 DoSCS=F DFT=T ScalE2(SS,OS)=  1.000000  1.000000
 ExpMin= 4.38D-02 ExpMax= 8.59D+03 ExpMxC= 1.30D+03 IAcc=3 IRadAn=         5 AccDes= 0.00D+00
 HarFok:  IExCor=  205 AccDes= 0.00D+00 IRadAn=         5 IDoV=-2 UseB2=F ITyADJ=14
 ICtDFT= 12500011 ScaDFX=  1.000000  1.000000  1.000000  1.000000
 Largest valence mixing into a core orbital is  5.47D-05
 Largest core mixing into a valence orbital is  1.50D-05
 Range of M.O.s used for correlation:    15   343
 NBasis=   344 NAE=    49 NBE=    49 NFC=    14 NFV=     0
 NROrb=    329 NOA=    35 NOB=    35 NVA=   294 NVB=   294

 **** Warning!!: The largest alpha MO coefficient is  0.23966199D+03

 Leave Link  801 at Mon Oct  2 15:11:55 2017, MaxMem=  1879048192 cpu:         1.0
 (Enter /share/apps/gaussian/g09_D01/g09/l914.exe)
 RHF ground state
 MDV=  1879048192 DFT=T DoStab=F Mixed=T DoRPA=T DoScal=F NonHer=T
 Would need an additional          8749000000 words for in-memory AO integral storage.
 Making orbital integer symmetry assigments:
    40 initial guesses have been made.
 Convergence on wavefunction:    0.001000000000000
 Davidson Disk Diagonalization:  ConvIn= 1.00D-03 SkipCon=T Conv= 1.00D-03.
 Max sub-space:   200 roots to seek:    40 dimension of matrix:        20580
 Iteration     1 Dimension    40 NMult     0 NNew     40
 CISAX will form    40 AO SS matrices at one time.
 NMat=    40 NSing=    20 JSym2X= 0.
 FoFJK:  IHMeth= 1 ICntrl=       0 DoSepK=T KAlg= 0 I1Cent=   0 FoldK=F
 IRaf=         1 NMat=  80 IRICut=       1 DoRegI=T DoRafI=F ISym2E= 0.
 FoFCou: FMM=F IPFlag=           0 FMFlag=      100000 FMFlg1=           0
         NFxFlg=           0 DoJE=F BraDBF=F KetDBF=F FulRan=T
         wScrn=  0.000000 ICntrl=     500 IOpCl=  0 I1Cent=           0 NGrid=           0
         NMat0=   20 NMatS0=     20 NMatT0=    0 NMatD0=   20 NMtDS0=    0 NMtDT0=    0
 Symmetry not used in FoFCou.
 New state      1 was old state      2
 New state      2 was old state      4
 New state      3 was old state     34
 New state      4 was old state     24
 New state      5 was old state     36
 New state      6 was old state     16
 New state      7 was old state      3
 New state      8 was old state      6
 New state      9 was old state      1
 New state     10 was old state      5
 Excitation Energies [eV] at current iteration:
 Root      1 :     4.266142800300676
 Root      2 :     4.528581536251293
 Root      3 :     4.791397661492669
 Root      4 :     5.091351733566356
 Root      5 :     5.213922219515871
 Root      6 :     5.482114020170499
 Root      7 :     5.549231844431755
 Root      8 :     5.653668560069748
 Root      9 :     5.770588726366067
 Root     10 :     5.784776702656584
 Root     11 :     6.074971735632356
 Root     12 :     6.383108163450516
 Root     13 :     6.383171525002964
 Root     14 :     6.814991345935294
 Root     15 :     6.825230315326395
 Root     16 :     6.922297811699889
 Root     17 :     6.978654193042510
 Root     18 :     7.037014521687357
 Root     19 :     7.069904210208890
 Root     20 :     7.088332435450586
 Root     21 :     7.114737890020741
 Root     22 :     7.311916583755975
 Root     23 :     7.348368388268432
 Root     24 :     7.357811897181827
 Root     25 :     7.361155904906309
 Root     26 :     7.370477858991375
 Root     27 :     7.414104747628600
 Root     28 :     7.446294702393075
 Root     29 :     7.458480901004963
 Root     30 :     7.516993823461153
 Root     31 :     7.526450875062531
 Root     32 :     7.657859145952000
 Root     33 :     7.729956980458488
 Root     34 :     7.844565706645121
 Root     35 :     7.864380632567831
 Root     36 :     7.916093360245354
 Root     37 :     7.933419361184318
 Root     38 :     7.995180220885476
 Root     39 :     8.011943822174906
 Root     40 :     8.724865123165634
 Vector   6 SDiff=1.49D-01 TDiff=1.81D+00 assumed to be singlet.
 Vector   8 SDiff=1.60D+00 TDiff=1.78D+00 assumed to be singlet.
 Vector  16 SDiff=1.60D-01 TDiff=1.64D+00 assumed to be singlet.
 Vector  18 SDiff=1.66D+00 TDiff=1.76D+00 assumed to be singlet.
 Iteration     2 Dimension    60 NMult    40 NNew     20
 CISAX will form    20 AO SS matrices at one time.
 NMat=    20 NSing=    10 JSym2X= 0.
 Root      1 not converged, maximum delta is    0.191042701579557
 New state      2 was old state      3
 Root      2 not converged, maximum delta is    0.357570726086853
 New state      3 was old state      2
 Root      3 not converged, maximum delta is    0.274205296747464
 New state      4 was old state      5
 Root      4 not converged, maximum delta is    0.323019546797271
 New state      5 was old state      4
 Root      5 not converged, maximum delta is    0.205062672763283
 New state      6 was old state      7
 Root      6 not converged, maximum delta is    0.105890819330899
 New state      7 was old state      9
 Root      7 not converged, maximum delta is    0.061252837193769
 New state      8 was old state     10
 Root      8 not converged, maximum delta is    0.196090149403846
 New state      9 was old state     12
 Root      9 not converged, maximum delta is    0.095113070713432
 New state     10 was old state     16
 Root     10 not converged, maximum delta is    0.342680730973709
 Excitation Energies [eV] at current iteration:
 Root      1 :     3.416464536209730   Change is   -0.849678264090945
 Root      2 :     3.927843937488564   Change is   -0.863553724004104
 Root      3 :     4.222672768451146   Change is   -0.305908767800148
 Root      4 :     4.629768283387386   Change is   -0.584153936128485
 Root      5 :     4.834096109594417   Change is   -0.257255623971939
 Root      6 :     5.071380294410715   Change is   -0.477851550021040
 Root      7 :     5.225632607704819   Change is   -0.544956118661248
 Root      8 :     5.342105206453335   Change is   -0.442671496203249
 Root      9 :     6.137475476245229   Change is   -0.245632687205287
 Root     10 :     6.287034444248710   Change is   -0.635263367451179
 Iteration     3 Dimension    80 NMult    60 NNew     20
 CISAX will form    20 AO SS matrices at one time.
 NMat=    20 NSing=    10 JSym2X= 0.
 Root      1 not converged, maximum delta is    0.005143231186807
 Root      2 not converged, maximum delta is    0.022186544485418
 Root      3 not converged, maximum delta is    0.025842902031918
 Root      4 not converged, maximum delta is    0.033695651345260
 Root      5 not converged, maximum delta is    0.009295894355623
 Root      6 not converged, maximum delta is    0.037294672315370
 Root      7 not converged, maximum delta is    0.036690244322468
 Root      8 not converged, maximum delta is    0.066279390813861
 Root      9 not converged, maximum delta is    0.033559655170710
 Root     10 not converged, maximum delta is    0.036212754934571
 Excitation Energies [eV] at current iteration:
 Root      1 :     3.385851030177460   Change is   -0.030613506032271
 Root      2 :     3.900010208250172   Change is   -0.027833729238393
 Root      3 :     4.193056222750619   Change is   -0.029616545700526
 Root      4 :     4.605516444824714   Change is   -0.024251838562672
 Root      5 :     4.823917097252847   Change is   -0.010179012341570
 Root      6 :     5.022785767966566   Change is   -0.048594526444149
 Root      7 :     5.195370247959236   Change is   -0.030262359745583
 Root      8 :     5.259287680934264   Change is   -0.082817525519070
 Root      9 :     6.097724609165111   Change is   -0.039750867080119
 Root     10 :     6.175126172462625   Change is   -0.111908271786085
 Iteration     4 Dimension   100 NMult    80 NNew     20
 CISAX will form    20 AO SS matrices at one time.
 NMat=    20 NSing=    10 JSym2X= 0.
 Root      1 not converged, maximum delta is    0.001337677175779
 Root      2 not converged, maximum delta is    0.003356567434936
 Root      3 not converged, maximum delta is    0.004442506915562
 Root      4 not converged, maximum delta is    0.004170554512739
 Root      5 not converged, maximum delta is    0.003101502804207
 Root      6 not converged, maximum delta is    0.009282529779639
 Root      7 not converged, maximum delta is    0.007023617022145
 Root      8 not converged, maximum delta is    0.008356159465525
 Root      9 not converged, maximum delta is    0.034453381613665
 Root     10 not converged, maximum delta is    0.019267200681096
 Excitation Energies [eV] at current iteration:
 Root      1 :     3.384798872378415   Change is   -0.001052157799045
 Root      2 :     3.898500014707369   Change is   -0.001510193542802
 Root      3 :     4.191085917539289   Change is   -0.001970305211330
 Root      4 :     4.604003517192425   Change is   -0.001512927632289
 Root      5 :     4.823029090859146   Change is   -0.000888006393701
 Root      6 :     5.017530905221364   Change is   -0.005254862745202
 Root      7 :     5.190089510225566   Change is   -0.005280737733670
 Root      8 :     5.253737947979971   Change is   -0.005549732954293
 Root      9 :     6.086357190240745   Change is   -0.011367418924366
 Root     10 :     6.157577737974370   Change is   -0.017548434488255
 Iteration     5 Dimension   120 NMult   100 NNew     20
 CISAX will form    20 AO SS matrices at one time.
 NMat=    20 NSing=    10 JSym2X= 0.
 Root      1 has converged.
 Root      2 has converged.
 Root      3 not converged, maximum delta is    0.001411759603422
 Root      4 not converged, maximum delta is    0.001385586412836
 Root      5 not converged, maximum delta is    0.002501890208362
 Root      6 not converged, maximum delta is    0.001782755395255
 Root      7 not converged, maximum delta is    0.002468799776045
 Root      8 not converged, maximum delta is    0.001980236850590
 Root      9 not converged, maximum delta is    0.013152335020861
 Root     10 not converged, maximum delta is    0.010268866909316
 Excitation Energies [eV] at current iteration:
 Root      1 :     3.384750647772900   Change is   -0.000048224605515
 Root      2 :     3.898390636634742   Change is   -0.000109378072628
 Root      3 :     4.190928961157041   Change is   -0.000156956382248
 Root      4 :     4.603864645019874   Change is   -0.000138872172551
 Root      5 :     4.822927447919671   Change is   -0.000101642939475
 Root      6 :     5.017169878626016   Change is   -0.000361026595348
 Root      7 :     5.189508641452068   Change is   -0.000580868773498
 Root      8 :     5.253312538029980   Change is   -0.000425409949991
 Root      9 :     6.084141184807708   Change is   -0.002216005433037
 Root     10 :     6.154062556169803   Change is   -0.003515181804567
 Iteration     6 Dimension   136 NMult   120 NNew     16
 CISAX will form    16 AO SS matrices at one time.
 NMat=    16 NSing=    10 JSym2X= 0.
 Root      1 has converged.
 Root      2 has converged.
 Root      3 has converged.
 Root      4 has converged.
 Root      5 not converged, maximum delta is    0.065115774761295
 Root      6 has converged.
 Root      7 has converged.
 Root      8 has converged.
 Root      9 not converged, maximum delta is    0.002936749529598
 Root     10 not converged, maximum delta is    0.003705085905636
 Excitation Energies [eV] at current iteration:
 Root      1 :     3.384748947738616   Change is   -0.000001700034284
 Root      2 :     3.898383766887314   Change is   -0.000006869747428
 Root      3 :     4.190915424658218   Change is   -0.000013536498822
 Root      4 :     4.603850840178642   Change is   -0.000013804841232
 Root      5 :     4.822351294905918   Change is   -0.000576153013753
 Root      6 :     5.017137579624321   Change is   -0.000032299001696
 Root      7 :     5.189461597428168   Change is   -0.000047044023901
 Root      8 :     5.253276412736140   Change is   -0.000036125293840
 Root      9 :     6.083788858131516   Change is   -0.000352326676191
 Root     10 :     6.153456559764868   Change is   -0.000605996404936
 Iteration     7 Dimension   142 NMult   136 NNew      6
 CISAX will form     6 AO SS matrices at one time.
 NMat=     6 NSing=     4 JSym2X= 0.
 Root      1 has converged.
 Root      2 has converged.
 Root      3 has converged.
 Root      4 not converged, maximum delta is    0.001776902432979
 Root      5 not converged, maximum delta is    0.423666240232631
 Root      6 has converged.
 Root      7 has converged.
 Root      8 has converged.
 Root      9 not converged, maximum delta is    0.001164163953025
 Root     10 not converged, maximum delta is    0.001298195063685
 Excitation Energies [eV] at current iteration:
 Root      1 :     3.384748795329135   Change is   -0.000000152409481
 Root      2 :     3.898383701528783   Change is   -0.000000065358532
 Root      3 :     4.190915418600162   Change is   -0.000000006058057
 Root      4 :     4.603849546820890   Change is   -0.000001293357752
 Root      5 :     4.670436442632173   Change is   -0.151914852273745
 Root      6 :     5.017137105169881   Change is   -0.000000474454440
 Root      7 :     5.189461099362611   Change is   -0.000000498065557
 Root      8 :     5.253275869775714   Change is   -0.000000542960425
 Root      9 :     6.083727221779012   Change is   -0.000061636352505
 Root     10 :     6.153340855271185   Change is   -0.000115704493683
 Iteration     8 Dimension   150 NMult   142 NNew      8
 CISAX will form     8 AO SS matrices at one time.
 NMat=     8 NSing=     4 JSym2X= 0.
 Root      1 has converged.
 Root      2 has converged.
 Root      3 has converged.
 Root      4 not converged, maximum delta is    0.001473090740585
 Root      5 not converged, maximum delta is    0.021899918350307
 Root      6 has converged.
 Root      7 has converged.
 Root      8 has converged.
 Root      9 has converged.
 Root     10 has converged.
 Excitation Energies [eV] at current iteration:
 Root      1 :     3.384748666226465   Change is   -0.000000129102669
 Root      2 :     3.898383338716352   Change is   -0.000000362812430
 Root      3 :     4.190914706172392   Change is   -0.000000712427770
 Root      4 :     4.603847235419958   Change is   -0.000002311400932
 Root      5 :     4.647183587804988   Change is   -0.023252854827185
 Root      6 :     5.017137007874751   Change is   -0.000000097295131
 Root      7 :     5.189460920603650   Change is   -0.000000178758961
 Root      8 :     5.253275827180486   Change is   -0.000000042595228
 Root      9 :     6.083717036103386   Change is   -0.000010185675625
 Root     10 :     6.153320490431054   Change is   -0.000020364840131
 Iteration     9 Dimension   154 NMult   150 NNew      4
 CISAX will form     4 AO SS matrices at one time.
 NMat=     4 NSing=     0 JSym2X= 0.
 Root      1 has converged.
 Root      2 has converged.
 Root      3 has converged.
 Root      4 has converged.
 Root      5 not converged, maximum delta is    0.016731843281200
 Root      6 has converged.
 Root      7 has converged.
 Root      8 has converged.
 Root      9 has converged.
 Root     10 has converged.
 Excitation Energies [eV] at current iteration:
 Root      1 :     3.384748615444124   Change is   -0.000000050782341
 Root      2 :     3.898383184803177   Change is   -0.000000153913175
 Root      3 :     4.190914620509541   Change is   -0.000000085662851
 Root      4 :     4.603846955357565   Change is   -0.000000280062393
 Root      5 :     4.643909244365767   Change is   -0.003274343439221
 Root      6 :     5.017137007874751   Change is    0.000000000000000
 Root      7 :     5.189460920603714   Change is    0.000000000000063
 Root      8 :     5.253275827180393   Change is   -0.000000000000094
 Root      9 :     6.083717036103481   Change is    0.000000000000094
 Root     10 :     6.153320490431094   Change is    0.000000000000040
 Iteration    10 Dimension   156 NMult   154 NNew      2
 CISAX will form     2 AO SS matrices at one time.
 NMat=     2 NSing=     0 JSym2X= 0.
 Root      1 has converged.
 Root      2 has converged.
 Root      3 has converged.
 Root      4 has converged.
 Root      5 not converged, maximum delta is    0.013065571009218
 Root      6 has converged.
 Root      7 has converged.
 Root      8 has converged.
 Root      9 has converged.
 Root     10 has converged.
 Excitation Energies [eV] at current iteration:
 Root      1 :     3.384748544574919   Change is   -0.000000070869205
 Root      2 :     3.898383071957193   Change is   -0.000000112845983
 Root      3 :     4.190914610637593   Change is   -0.000000009871948
 Root      4 :     4.603846923845900   Change is   -0.000000031511665
 Root      5 :     4.643009021356661   Change is   -0.000900223009106
 Root      6 :     5.017137007874864   Change is    0.000000000000114
 Root      7 :     5.189460920603539   Change is   -0.000000000000174
 Root      8 :     5.253275827180455   Change is    0.000000000000063
 Root      9 :     6.083717036103373   Change is   -0.000000000000108
 Root     10 :     6.153320490431040   Change is   -0.000000000000054
 Iteration    11 Dimension   158 NMult   156 NNew      2
 CISAX will form     2 AO SS matrices at one time.
 NMat=     2 NSing=     0 JSym2X= 0.
 Root      1 has converged.
 Root      2 has converged.
 Root      3 has converged.
 Root      4 has converged.
 Root      5 not converged, maximum delta is    0.004751071048170
 Root      6 has converged.
 Root      7 has converged.
 Root      8 has converged.
 Root      9 has converged.
 Root     10 has converged.
 Excitation Energies [eV] at current iteration:
 Root      1 :     3.384748460799923   Change is   -0.000000083774996
 Root      2 :     3.898382983602759   Change is   -0.000000088354435
 Root      3 :     4.190914609214321   Change is   -0.000000001423272
 Root      4 :     4.603846917794109   Change is   -0.000000006051792
 Root      5 :     4.642840590007165   Change is   -0.000168431349496
 Root      6 :     5.017137007874766   Change is   -0.000000000000098
 Root      7 :     5.189460920603603   Change is    0.000000000000063
 Root      8 :     5.253275827180455   Change is    0.000000000000000
 Root      9 :     6.083717036103440   Change is    0.000000000000067
 Root     10 :     6.153320490431186   Change is    0.000000000000147
 Iteration    12 Dimension   160 NMult   158 NNew      2
 CISAX will form     2 AO SS matrices at one time.
 NMat=     2 NSing=     0 JSym2X= 0.
 Root      1 has converged.
 Root      2 has converged.
 Root      3 has converged.
 Root      4 has converged.
 Root      5 not converged, maximum delta is    0.001056810689632
 Root      6 has converged.
 Root      7 has converged.
 Root      8 has converged.
 Root      9 has converged.
 Root     10 has converged.
 Excitation Energies [eV] at current iteration:
 Root      1 :     3.384748422669539   Change is   -0.000000038130385
 Root      2 :     3.898382924690563   Change is   -0.000000058912195
 Root      3 :     4.190914602088074   Change is   -0.000000007126248
 Root      4 :     4.603846916791355   Change is   -0.000000001002754
 Root      5 :     4.642818138274745   Change is   -0.000022451732420
 Root      6 :     5.017137007874815   Change is    0.000000000000049
 Root      7 :     5.189460920603555   Change is   -0.000000000000048
 Root      8 :     5.253275827180486   Change is    0.000000000000031
 Root      9 :     6.083717036103467   Change is    0.000000000000027
 Root     10 :     6.153320490431160   Change is   -0.000000000000026
 Iteration    13 Dimension   162 NMult   160 NNew      2
 CISAX will form     2 AO SS matrices at one time.
 NMat=     2 NSing=     0 JSym2X= 0.
 Root      1 has converged.
 Root      2 has converged.
 Root      3 has converged.
 Root      4 has converged.
 Root      5 has converged.
 Root      6 has converged.
 Root      7 has converged.
 Root      8 has converged.
 Root      9 has converged.
 Root     10 has converged.
 Excitation Energies [eV] at current iteration:
 Root      1 :     3.384748414155705   Change is   -0.000000008513834
 Root      2 :     3.898382920554359   Change is   -0.000000004136205
 Root      3 :     4.190914597878693   Change is   -0.000000004209381
 Root      4 :     4.603846916705627   Change is   -0.000000000085728
 Root      5 :     4.642815661092717   Change is   -0.000002477182027
 Root      6 :     5.017137007874897   Change is    0.000000000000082
 Root      7 :     5.189460920603587   Change is    0.000000000000032
 Root      8 :     5.253275827180517   Change is    0.000000000000031
 Root      9 :     6.083717036103467   Change is    0.000000000000000
 Root     10 :     6.153320490431106   Change is   -0.000000000000054
 Convergence achieved on expansion vectors.
 ***********************************************************************
 Excited states from <AA,BB:AA,BB> singles matrix:
 ***********************************************************************
 
 1PDM for each excited state written to RWF  633
 Ground to excited state transition densities written to RWF  633
 Ground to excited state transition electric dipole moments (Au):
       state          X           Y           Z        Dip. S.      Osc.
         1         0.0000      0.0000      0.0000      0.0000      0.0000
         2         0.0000      0.0000      0.0000      0.0000      0.0000
         3         0.0000      0.0000      0.0000      0.0000      0.0000
         4         0.0000      0.0000      0.0000      0.0000      0.0000
         5         0.0000      0.0000      0.0000      0.0000      0.0000
         6         0.4375      0.1105     -0.2930      0.2895      0.0356
         7         1.9532     -0.1757      0.5520      4.1506      0.5277
         8        -0.1109      0.0487      0.0595      0.0182      0.0023
         9        -0.0296      0.2510      0.2425      0.1227      0.0183
        10        -0.0515     -0.0933      0.2027      0.0525      0.0079
 Ground to excited state transition velocity dipole moments (Au):
       state          X           Y           Z        Dip. S.      Osc.
         1         0.0000      0.0000      0.0000      0.0000      0.0000
         2         0.0000      0.0000      0.0000      0.0000      0.0000
         3         0.0000      0.0000      0.0000      0.0000      0.0000
         4         0.0000      0.0000      0.0000      0.0000      0.0000
         5         0.0000      0.0000      0.0000      0.0000      0.0000
         6        -0.0826     -0.0221      0.0573      0.0106      0.0383
         7        -0.3689      0.0332     -0.1038      0.1480      0.5173
         8         0.0210     -0.0102     -0.0108      0.0007      0.0023
         9         0.0063     -0.0593     -0.0555      0.0066      0.0198
        10         0.0116      0.0218     -0.0475      0.0029      0.0084
 Ground to excited state transition magnetic dipole moments (Au):
       state          X           Y           Z
         1         0.0000      0.0000      0.0000
         2         0.0000      0.0000      0.0000
         3         0.0000      0.0000      0.0000
         4         0.0000      0.0000      0.0000
         5         0.0000      0.0000      0.0000
         6        -0.0059      0.3549      0.0405
         7        -0.0842      0.1070     -0.0584
         8         0.0692      0.3170     -0.0726
         9        -0.0461      0.1188      0.5316
        10        -0.0413     -0.3317     -0.0672
 Ground to excited state transition velocity quadrupole moments (Au):
       state          XX          YY          ZZ          XY          XZ          YZ
         1         0.0000      0.0000      0.0000      0.0000      0.0000      0.0000
         2         0.0000      0.0000      0.0000      0.0000      0.0000      0.0000
         3         0.0000      0.0000      0.0000      0.0000      0.0000      0.0000
         4         0.0000      0.0000      0.0000      0.0000      0.0000      0.0000
         5         0.0000      0.0000      0.0000      0.0000      0.0000      0.0000
         6         0.5178     -0.0063     -0.2739      0.1295     -0.3961      0.0679
         7         1.4014     -0.0545      0.0029     -0.0036      0.2221     -0.0812
         8        -0.0037      0.0123     -0.0698     -0.0377     -0.0995      0.0034
         9         0.1312     -0.0105     -0.0870      0.4266      0.0029      0.0585
        10        -0.7373      0.0186      0.3099     -0.0233      0.1015     -0.0236
 <0|del|b> * <b|rxdel|0> + <0|del|b> * <b|delr+rdel|0>
 Rotatory Strengths (R) in cgs (10**-40 erg-esu-cm/Gauss)
       state          XX          YY          ZZ    R(velocity)    E-M Angle
         1         0.0000      0.0000      0.0000      0.0000       90.00
         2         0.0000      0.0000      0.0000      0.0000       90.00
         3         0.0000      0.0000      0.0000      0.0000       90.00
         4         0.0000      0.0000      0.0000      0.0000       90.00
         5         0.0000      0.0000      0.0000      0.0000       90.00
         6       -13.1770    -19.5865     13.4389     -6.4415       97.88
         7         4.8679    123.6606     22.2781     50.2688       44.48
         8        -5.6000      3.4807     -1.5362     -1.2185       96.70
         9       -94.9783     -9.0924    -12.4552    -38.8420      145.83
        10        -8.0352      2.0837     -8.1580     -4.7031      104.33
 1/2[<0|r|b>*<b|rxdel|0> + (<0|rxdel|b>*<b|r|0>)*]
 Rotatory Strengths (R) in cgs (10**-40 erg-esu-cm/Gauss)
       state          XX          YY          ZZ     R(length)
         1         0.0000      0.0000      0.0000      0.0000
         2         0.0000      0.0000      0.0000      0.0000
         3         0.0000      0.0000      0.0000      0.0000
         4         0.0000      0.0000      0.0000      0.0000
         5         0.0000      0.0000      0.0000      0.0000
         6         1.8280    -27.7369      8.3924     -5.8389
         7       116.2366     13.2996     22.8146     50.7836
         8         5.4243    -10.9164      3.0548     -0.8125
         9        -0.9657    -21.0959    -91.1709    -37.7442
        10        -1.5036    -21.8832      9.6318     -4.5850
  1/2[<0|del|b>*<b|r|0> + (<0|r|b>*<b|del|0>)*] (Au)
       state          X           Y           Z        Dip. S.   Osc.(frdel)
         1         0.0000      0.0000      0.0000      0.0000      0.0000
         2         0.0000      0.0000      0.0000      0.0000      0.0000
         3         0.0000      0.0000      0.0000      0.0000      0.0000
         4         0.0000      0.0000      0.0000      0.0000      0.0000
         5         0.0000      0.0000      0.0000      0.0000      0.0000
         6        -0.0361     -0.0024     -0.0168      0.0554      0.0369
         7        -0.7206     -0.0058     -0.0573      0.7837      0.5225
         8        -0.0023     -0.0005     -0.0006      0.0035      0.0023
         9        -0.0002     -0.0149     -0.0135      0.0285      0.0190
        10        -0.0006     -0.0020     -0.0096      0.0123      0.0082

 Excitation energies and oscillator strengths:
 
 Excited state symmetry could not be determined.
 Excited State   1:      Triplet-?Sym    3.3847 eV  366.30 nm  f=0.0000  <S**2>=2.000
      46 -> 50         0.12354
      46 -> 58         0.15334
      47 -> 51        -0.22467
      48 -> 52         0.20690
      49 -> 50         0.55818
 This state for optimization and/or second-order correction.
 Total Energy, E(TD-HF/TD-KS) =  -577.628532330    
 Copying the excited state density for this state as the 1-particle RhoCI density.
 
 Excited state symmetry could not be determined.
 Excited State   2:      Triplet-?Sym    3.8984 eV  318.04 nm  f=0.0000  <S**2>=2.000
      46 -> 50         0.30135
      47 -> 50         0.15696
      47 -> 51         0.28297
      48 -> 52         0.36886
      49 -> 51        -0.14319
      49 -> 58         0.25398
      49 -> 61         0.12100
 
 Excited state symmetry could not be determined.
 Excited State   3:      Triplet-?Sym    4.1909 eV  295.84 nm  f=0.0000  <S**2>=2.000
      46 -> 51        -0.19463
      49 -> 51         0.64029
 
 Excited state symmetry could not be determined.
 Excited State   4:      Triplet-?Sym    4.6038 eV  269.31 nm  f=0.0000  <S**2>=2.000
      46 -> 51        -0.16461
      47 -> 51         0.46486
      47 -> 52         0.11026
      48 -> 51         0.11771
      48 -> 52        -0.30998
      49 -> 50         0.31533
 
 Excited state symmetry could not be determined.
 Excited State   5:      Triplet-?Sym    4.6428 eV  267.05 nm  f=0.0000  <S**2>=2.000
      46 -> 52         0.35260
      47 -> 52         0.13515
      48 -> 50         0.27065
      49 -> 52         0.47540
      49 -> 53        -0.10898
 
 Excited state symmetry could not be determined.
 Excited State   6:      Singlet-?Sym    5.0171 eV  247.12 nm  f=0.0356  <S**2>=0.000
      46 -> 51        -0.11444
      47 -> 50         0.22976
      47 -> 58        -0.11642
      49 -> 50         0.16383
      49 -> 51         0.59215
 
 Excited state symmetry could not be determined.
 Excited State   7:      Singlet-?Sym    5.1895 eV  238.92 nm  f=0.5277  <S**2>=0.000
      49 -> 50         0.65405
      49 -> 51        -0.15153
 
 Excited state symmetry could not be determined.
 Excited State   8:      Singlet-?Sym    5.2533 eV  236.01 nm  f=0.0023  <S**2>=0.000
      46 -> 52         0.26310
      47 -> 52         0.10343
      48 -> 50        -0.38895
      48 -> 58        -0.12988
      49 -> 52         0.46278
 
 Excited state symmetry could not be determined.
 Excited State   9:      Singlet-?Sym    6.0837 eV  203.80 nm  f=0.0183  <S**2>=0.000
      46 -> 54         0.10461
      48 -> 50         0.13817
      49 -> 52         0.24876
      49 -> 53         0.53618
      49 -> 56        -0.17581
      49 -> 62         0.14294
 
 Excited state symmetry could not be determined.
 Excited State  10:      Singlet-?Sym    6.1533 eV  201.49 nm  f=0.0079  <S**2>=0.000
      46 -> 50         0.30224
      46 -> 51        -0.10461
      47 -> 50         0.24418
      47 -> 51         0.25478
      48 -> 52         0.33310
      49 -> 55         0.14308
      49 -> 57        -0.11404
      49 -> 58         0.30652
 SavETr:  write IOETrn=   770 NScale= 10 NData=  16 NLR=1 NState=   10 LETran=     190.
 Leave Link  914 at Mon Oct  2 16:04:30 2017, MaxMem=  1879048192 cpu:      4900.0
 (Enter /share/apps/gaussian/g09_D01/g09/l601.exe)
 Copying SCF densities to generalized density rwf, IOpCl= 0 IROHF=0.

 **********************************************************************

            Population analysis using the SCF density.

 **********************************************************************

 Alpha  occ. eigenvalues --  -19.28282 -10.35131 -10.33881 -10.29908 -10.29378
 Alpha  occ. eigenvalues --  -10.29255 -10.29129 -10.28973 -10.28888 -10.28879
 Alpha  occ. eigenvalues --  -10.28740 -10.28733 -10.28722 -10.28513  -1.18032
 Alpha  occ. eigenvalues --   -0.97619  -0.95416  -0.88389  -0.85784  -0.84810
 Alpha  occ. eigenvalues --   -0.83684  -0.79424  -0.72159  -0.71173  -0.69347
 Alpha  occ. eigenvalues --   -0.67295  -0.63654  -0.61350  -0.58212  -0.56856
 Alpha  occ. eigenvalues --   -0.56691  -0.54057  -0.53725  -0.53106  -0.51547
 Alpha  occ. eigenvalues --   -0.50906  -0.50509  -0.47531  -0.47337  -0.45968
 Alpha  occ. eigenvalues --   -0.44944  -0.42847  -0.42453  -0.41423  -0.41089
 Alpha  occ. eigenvalues --   -0.34154  -0.33531  -0.33190  -0.28713
 Alpha virt. eigenvalues --    0.03695   0.05272   0.05505   0.05817   0.06553
 Alpha virt. eigenvalues --    0.07442   0.07914   0.08411   0.08922   0.09657
 Alpha virt. eigenvalues --    0.09721   0.09865   0.10664   0.11026   0.11233
 Alpha virt. eigenvalues --    0.12207   0.12429   0.13631   0.14324   0.14881
 Alpha virt. eigenvalues --    0.15534   0.16161   0.16652   0.17151   0.17435
 Alpha virt. eigenvalues --    0.18527   0.18865   0.18985   0.19637   0.20006
 Alpha virt. eigenvalues --    0.20492   0.21088   0.21212   0.21801   0.22155
 Alpha virt. eigenvalues --    0.22302   0.22663   0.23607   0.23858   0.24437
 Alpha virt. eigenvalues --    0.25232   0.25331   0.25672   0.26399   0.26498
 Alpha virt. eigenvalues --    0.26813   0.26967   0.27403   0.27409   0.28096
 Alpha virt. eigenvalues --    0.28309   0.28389   0.28663   0.29125   0.29983
 Alpha virt. eigenvalues --    0.30167   0.30928   0.31365   0.31461   0.32135
 Alpha virt. eigenvalues --    0.32697   0.33307   0.33709   0.34402   0.34592
 Alpha virt. eigenvalues --    0.35030   0.35106   0.35851   0.36671   0.36920
 Alpha virt. eigenvalues --    0.38066   0.38311   0.38885   0.39430   0.40471
 Alpha virt. eigenvalues --    0.40987   0.41243   0.42110   0.43505   0.44088
 Alpha virt. eigenvalues --    0.45501   0.45816   0.48907   0.50544   0.52021
 Alpha virt. eigenvalues --    0.54342   0.57149   0.58533   0.60440   0.60620
 Alpha virt. eigenvalues --    0.61213   0.61666   0.61951   0.62984   0.63571
 Alpha virt. eigenvalues --    0.63898   0.65188   0.66394   0.66786   0.67042
 Alpha virt. eigenvalues --    0.67110   0.69173   0.69492   0.70320   0.70895
 Alpha virt. eigenvalues --    0.71334   0.72165   0.72768   0.73626   0.75123
 Alpha virt. eigenvalues --    0.75326   0.77047   0.77324   0.77523   0.78019
 Alpha virt. eigenvalues --    0.78688   0.79499   0.79914   0.80687   0.81388
 Alpha virt. eigenvalues --    0.82043   0.82713   0.83562   0.85078   0.86076
 Alpha virt. eigenvalues --    0.86589   0.87274   0.88534   0.89371   0.92196
 Alpha virt. eigenvalues --    0.92705   0.93636   0.94283   0.94737   0.96216
 Alpha virt. eigenvalues --    0.97556   0.97764   0.99238   1.00004   1.01154
 Alpha virt. eigenvalues --    1.02737   1.04473   1.04535   1.06715   1.08534
 Alpha virt. eigenvalues --    1.09601   1.09964   1.11842   1.14271   1.16074
 Alpha virt. eigenvalues --    1.16787   1.17363   1.20898   1.23119   1.23654
 Alpha virt. eigenvalues --    1.24243   1.28815   1.28985   1.31067   1.32254
 Alpha virt. eigenvalues --    1.33171   1.33708   1.36867   1.40022   1.41311
 Alpha virt. eigenvalues --    1.44130   1.44697   1.45452   1.57467   1.58401
 Alpha virt. eigenvalues --    1.60701   1.61395   1.62494   1.63834   1.64372
 Alpha virt. eigenvalues --    1.64903   1.66542   1.67831   1.70470   1.72881
 Alpha virt. eigenvalues --    1.77286   1.81396   1.83607   1.84882   1.85697
 Alpha virt. eigenvalues --    1.86055   1.86902   1.88893   1.90103   1.91669
 Alpha virt. eigenvalues --    1.92255   1.93823   1.95692   1.96774   1.98063
 Alpha virt. eigenvalues --    2.02031   2.02389   2.02455   2.03584   2.03998
 Alpha virt. eigenvalues --    2.06572   2.09027   2.12766   2.15393   2.17291
 Alpha virt. eigenvalues --    2.18209   2.26649   2.32618   2.33683   2.36791
 Alpha virt. eigenvalues --    2.37066   2.41489   2.42464   2.44525   2.45741
 Alpha virt. eigenvalues --    2.46799   2.47734   2.50745   2.51881   2.52171
 Alpha virt. eigenvalues --    2.53785   2.54138   2.60288   2.63725   2.75834
 Alpha virt. eigenvalues --    2.76846   2.77031   2.78409   2.78857   2.81941
 Alpha virt. eigenvalues --    2.87867   2.88766   2.89049   2.90988   2.92953
 Alpha virt. eigenvalues --    2.97793   2.98139   2.98910   3.02660   3.03876
 Alpha virt. eigenvalues --    3.06957   3.09233   3.10318   3.17118   3.18268
 Alpha virt. eigenvalues --    3.20067   3.27473   3.28683   3.29311   3.30672
 Alpha virt. eigenvalues --    3.31366   3.31859   3.40773   3.41550   3.41594
 Alpha virt. eigenvalues --    3.42758   3.42977   3.43734   3.46288   3.50399
 Alpha virt. eigenvalues --    3.51615   3.53503   3.60198   3.69320   3.73186
 Alpha virt. eigenvalues --    3.76335   3.77753   3.80271   4.00899   4.08205
 Alpha virt. eigenvalues --    4.09697   4.13341   4.14212   4.25028   4.55259
 Alpha virt. eigenvalues --    4.89110   4.91293   5.12748   5.46482   5.84284
 Alpha virt. eigenvalues --   23.44522  23.62385  23.67423  23.98562  23.98971
 Alpha virt. eigenvalues --   24.02332  24.05353  24.14865  24.19402  24.19768
 Alpha virt. eigenvalues --   24.20918  24.28409  24.30706  50.08622
          Condensed to atoms (all electrons):
               1          2          3          4          5          6
     1  C   12.693969  -1.597588  -0.302997  -1.080770  -0.349489  -1.757963
     2  C   -1.597588  17.587379  -2.081485   0.857739  -0.917513  -6.786044
     3  C   -0.302997  -2.081485   8.136861  -0.144110   0.543920  -0.674832
     4  C   -1.080770   0.857739  -0.144110   6.224178  -0.071208   0.615752
     5  C   -0.349489  -0.917513   0.543920  -0.071208   7.943057  -1.695428
     6  C   -1.757963  -6.786044  -0.674832   0.615752  -1.695428  16.778242
     7  H   -0.013795   0.254030   0.027564  -0.011165  -0.003343  -0.010838
     8  H    0.017085   0.026715   0.270038   0.040724  -0.022442   0.005307
     9  H    0.050136  -0.070716   0.075845   0.264208   0.075180  -0.069655
    10  H    0.011243   0.006329  -0.023838   0.046683   0.274322   0.023719
    11  H    0.015881  -0.025859   0.001549  -0.013993   0.055880   0.242444
    12  C   -2.190706  -1.691230   0.603574  -0.482280   0.518966  -0.974910
    13  C    2.499924  -0.534579  -0.025019   0.012045   0.426242   1.024479
    14  C   -0.202928  -0.213887  -0.003056  -0.014014   0.085150   0.113844
    15  C   -0.002415   0.041124  -0.003784   0.003153  -0.000609   0.052475
    16  C    0.799069  -0.053661   0.177327  -0.028346   0.012049  -0.191030
    17  C   -3.745386   1.699211  -0.090477   0.115698  -0.416701  -0.184118
    18  H   -0.026905  -0.022042  -0.006368   0.004979  -0.004392   0.088356
    19  H    0.005502  -0.001742  -0.000339   0.000098  -0.000085   0.004355
    20  O    0.004289  -0.003130   0.000209  -0.000087   0.000350  -0.000817
    21  H   -0.001276   0.006634  -0.000165   0.000154  -0.000534  -0.002295
    22  H    0.017856   0.082144   0.007377   0.003129  -0.003547  -0.034757
    23  C    0.012821  -0.004446   0.000579  -0.000196   0.000390   0.000656
    24  H   -0.000017   0.000016  -0.000002   0.000000  -0.000002  -0.000013
    25  H   -0.000278  -0.000327   0.000002  -0.000001   0.000005   0.000231
    26  H    0.000141   0.000303   0.000007  -0.000001   0.000006  -0.000120
               7          8          9         10         11         12
     1  C   -0.013795   0.017085   0.050136   0.011243   0.015881  -2.190706
     2  C    0.254030   0.026715  -0.070716   0.006329  -0.025859  -1.691230
     3  C    0.027564   0.270038   0.075845  -0.023838   0.001549   0.603574
     4  C   -0.011165   0.040724   0.264208   0.046683  -0.013993  -0.482280
     5  C   -0.003343  -0.022442   0.075180   0.274322   0.055880   0.518966
     6  C   -0.010838   0.005307  -0.069655   0.023719   0.242444  -0.974910
     7  H    0.435675  -0.004082  -0.000177   0.000054  -0.000215   0.016581
     8  H   -0.004082   0.438545  -0.005151  -0.000183   0.000054  -0.011069
     9  H   -0.000177  -0.005151   0.438691  -0.005152  -0.000176   0.008205
    10  H    0.000054  -0.000183  -0.005152   0.438057  -0.004142  -0.009175
    11  H   -0.000215   0.000054  -0.000176  -0.004142   0.435156  -0.002779
    12  C    0.016581  -0.011069   0.008205  -0.009175  -0.002779  16.642761
    13  C   -0.047868  -0.004450  -0.000855   0.003073   0.081723  -4.324511
    14  C   -0.001946  -0.000282   0.000090   0.000486   0.016394  -0.505244
    15  C    0.002427  -0.000024  -0.000028  -0.000124   0.000048  -2.135891
    16  C   -0.004752  -0.000252   0.000134  -0.000885  -0.005290  -0.859458
    17  C    0.123628   0.008566  -0.001003  -0.001640  -0.036674  -0.193481
    18  H    0.000001   0.000001   0.000001   0.000024  -0.000760   0.040793
    19  H    0.000001   0.000000   0.000000   0.000000   0.000017  -0.017710
    20  O   -0.000001   0.000000   0.000000   0.000000   0.000011  -0.030744
    21  H    0.000012   0.000000   0.000000   0.000000   0.000001  -0.007719
    22  H   -0.000749   0.000016   0.000001   0.000001   0.000010   0.046557
    23  C   -0.000060  -0.000001   0.000000  -0.000001  -0.000023  -0.032307
    24  H    0.000000   0.000000   0.000000   0.000000   0.000000   0.001212
    25  H    0.000000   0.000000   0.000000   0.000000   0.000000  -0.010955
    26  H    0.000000   0.000000   0.000000   0.000000   0.000000   0.002792
              13         14         15         16         17         18
     1  C    2.499924  -0.202928  -0.002415   0.799069  -3.745386  -0.026905
     2  C   -0.534579  -0.213887   0.041124  -0.053661   1.699211  -0.022042
     3  C   -0.025019  -0.003056  -0.003784   0.177327  -0.090477  -0.006368
     4  C    0.012045  -0.014014   0.003153  -0.028346   0.115698   0.004979
     5  C    0.426242   0.085150  -0.000609   0.012049  -0.416701  -0.004392
     6  C    1.024479   0.113844   0.052475  -0.191030  -0.184118   0.088356
     7  H   -0.047868  -0.001946   0.002427  -0.004752   0.123628   0.000001
     8  H   -0.004450  -0.000282  -0.000024  -0.000252   0.008566   0.000001
     9  H   -0.000855   0.000090  -0.000028   0.000134  -0.001003   0.000001
    10  H    0.003073   0.000486  -0.000124  -0.000885  -0.001640   0.000024
    11  H    0.081723   0.016394   0.000048  -0.005290  -0.036674  -0.000760
    12  C   -4.324511  -0.505244  -2.135891  -0.859458  -0.193481   0.040793
    13  C   17.490017  -1.294885   0.205351  -1.418551  -7.740216   0.254493
    14  C   -1.294885  12.361257  -0.208719  -1.306391  -2.120825   0.005663
    15  C    0.205351  -0.208719   9.092655  -0.990962   0.244929  -0.000344
    16  C   -1.418551  -1.306391  -0.990962  14.599316  -5.656269   0.001180
    17  C   -7.740216  -2.120825   0.244929  -5.656269  25.241598  -0.006473
    18  H    0.254493   0.005663  -0.000344   0.001180  -0.006473   0.429899
    19  H    0.038536   0.272836   0.066278  -0.007770  -0.024092  -0.003956
    20  O    0.046439  -0.573839   0.313224   0.189395   0.006326  -0.000874
    21  H    0.016235  -0.066198   0.022096   0.266555   0.110114   0.000051
    22  H    0.013076  -0.004540  -0.015707   0.161643   0.052271  -0.000241
    23  C   -0.005784   0.103746   0.030423  -0.080150  -0.278035   0.000078
    24  H   -0.003216  -0.019835   0.038840   0.008915   0.015563  -0.000001
    25  H   -0.000813   0.027988  -0.008536  -0.020097   0.000109   0.000001
    26  H    0.000899   0.007924  -0.028518   0.008560  -0.003476  -0.000001
              19         20         21         22         23         24
     1  C    0.005502   0.004289  -0.001276   0.017856   0.012821  -0.000017
     2  C   -0.001742  -0.003130   0.006634   0.082144  -0.004446   0.000016
     3  C   -0.000339   0.000209  -0.000165   0.007377   0.000579  -0.000002
     4  C    0.000098  -0.000087   0.000154   0.003129  -0.000196   0.000000
     5  C   -0.000085   0.000350  -0.000534  -0.003547   0.000390  -0.000002
     6  C    0.004355  -0.000817  -0.002295  -0.034757   0.000656  -0.000013
     7  H    0.000001  -0.000001   0.000012  -0.000749  -0.000060   0.000000
     8  H    0.000000   0.000000   0.000000   0.000016  -0.000001   0.000000
     9  H    0.000000   0.000000   0.000000   0.000001   0.000000   0.000000
    10  H    0.000000   0.000000   0.000000   0.000001  -0.000001   0.000000
    11  H    0.000017   0.000011   0.000001   0.000010  -0.000023   0.000000
    12  C   -0.017710  -0.030744  -0.007719   0.046557  -0.032307   0.001212
    13  C    0.038536   0.046439   0.016235   0.013076  -0.005784  -0.003216
    14  C    0.272836  -0.573839  -0.066198  -0.004540   0.103746  -0.019835
    15  C    0.066278   0.313224   0.022096  -0.015707   0.030423   0.038840
    16  C   -0.007770   0.189395   0.266555   0.161643  -0.080150   0.008915
    17  C   -0.024092   0.006326   0.110114   0.052271  -0.278035   0.015563
    18  H   -0.003956  -0.000874   0.000051  -0.000241   0.000078  -0.000001
    19  H    0.421296  -0.002486  -0.000078   0.000047  -0.000722  -0.000033
    20  O   -0.002486   8.167257  -0.012954  -0.000332   0.091173  -0.077193
    21  H   -0.000078  -0.012954   0.433607  -0.003859  -0.007328   0.000536
    22  H    0.000047  -0.000332  -0.003859   0.433772   0.001855  -0.000002
    23  C   -0.000722   0.091173  -0.007328   0.001855   5.666647   0.384911
    24  H   -0.000033  -0.077193   0.000536  -0.000002   0.384911   0.424842
    25  H    0.000044  -0.031179  -0.000476  -0.000004   0.386258  -0.022598
    26  H    0.000044  -0.031110  -0.000696   0.000043   0.383627  -0.022370
              25         26
     1  C   -0.000278   0.000141
     2  C   -0.000327   0.000303
     3  C    0.000002   0.000007
     4  C   -0.000001  -0.000001
     5  C    0.000005   0.000006
     6  C    0.000231  -0.000120
     7  H    0.000000   0.000000
     8  H    0.000000   0.000000
     9  H    0.000000   0.000000
    10  H    0.000000   0.000000
    11  H    0.000000   0.000000
    12  C   -0.010955   0.002792
    13  C   -0.000813   0.000899
    14  C    0.027988   0.007924
    15  C   -0.008536  -0.028518
    16  C   -0.020097   0.008560
    17  C    0.000109  -0.003476
    18  H    0.000001  -0.000001
    19  H    0.000044   0.000044
    20  O   -0.031179  -0.031110
    21  H   -0.000476  -0.000696
    22  H   -0.000004   0.000043
    23  C    0.386258   0.383627
    24  H   -0.022598  -0.022370
    25  H    0.471119  -0.049553
    26  H   -0.049553   0.474078
 Mulliken charges:
               1
     1  C    1.144595
     2  C   -0.557375
     3  C   -0.488380
     4  C   -0.342368
     5  C   -0.450223
     6  C   -0.567041
     7  H    0.239019
     8  H    0.240886
     9  H    0.240422
    10  H    0.241148
    11  H    0.240742
    12  C    1.598726
    13  C   -0.711783
    14  C   -0.458791
    15  C   -0.717359
    16  C    0.399722
    17  C   -1.119148
    18  H    0.246836
    19  H    0.249961
    20  O   -0.053927
    21  H    0.247582
    22  H    0.243940
    23  C   -0.654110
    24  H    0.270446
    25  H    0.259059
    26  H    0.257422
 Sum of Mulliken charges =   0.00000
 Mulliken charges with hydrogens summed into heavy atoms:
               1
     1  C    1.144595
     2  C   -0.318356
     3  C   -0.247494
     4  C   -0.101946
     5  C   -0.209075
     6  C   -0.326299
    12  C    1.598726
    13  C   -0.464947
    14  C   -0.208830
    15  C   -0.717359
    16  C    0.647303
    17  C   -0.875208
    20  O   -0.053927
    23  C    0.132817
 Electronic spatial extent (au):  <R**2>=           4322.4962
 Charge=              0.0000 electrons
 Dipole moment (field-independent basis, Debye):
    X=             -1.0719    Y=             -0.3265    Z=              0.9286  Tot=              1.4553
 Quadrupole moment (field-independent basis, Debye-Ang):
   XX=            -64.1569   YY=            -86.9557   ZZ=            -78.3129
   XY=              0.2175   XZ=             -4.3905   YZ=              1.5257
 Traceless Quadrupole moment (field-independent basis, Debye-Ang):
   XX=             12.3182   YY=            -10.4805   ZZ=             -1.8377
   XY=              0.2175   XZ=             -4.3905   YZ=              1.5257
 Octapole moment (field-independent basis, Debye-Ang**2):
  XXX=            180.8897  YYY=              1.3029  ZZZ=             55.0761  XYY=             97.0851
  XXY=            -14.2533  XXZ=             39.7233  XZZ=            106.3150  YZZ=              5.9950
  YYZ=             15.7413  XYZ=              4.8721
 Hexadecapole moment (field-independent basis, Debye-Ang**3):
 XXXX=          -3819.3756 YYYY=           -223.4554 ZZZZ=           -798.3575 XXXY=            165.4094
 XXXZ=           -542.1605 YYYX=            179.5318 YYYZ=             41.9823 ZZZX=           -530.0303
 ZZZY=             36.9703 XXYY=           -859.3568 XXZZ=           -962.3322 YYZZ=           -176.8488
 XXYZ=             27.4175 YYXZ=           -190.8875 ZZXY=             59.3956
 N-N= 7.880004320865D+02 E-N=-2.919446687239D+03  KE= 5.754363995382D+02
 Leave Link  601 at Mon Oct  2 16:04:32 2017, MaxMem=  1879048192 cpu:         0.3
 (Enter /share/apps/gaussian/g09_D01/g09/l9999.exe)
 1\1\GINC-NXV31\SP\RwB97XD TD-FC\6-311+G(d)\C13H12O1\BTX008\02-Oct-2017
 \0\\#p wb97xd 6-311+G(d) nosymm td=(nstates=5,50-50)\\m4 tddft singlet
 s and triplets\\0,1\C,0,0.338094,-0.125044,0.173504\C,0,0.734141,0.334
 048,1.432469\C,0,2.047373,0.191817,1.862515\C,0,2.992216,-0.408786,1.0
 38274\C,0,2.612008,-0.866625,-0.218145\C,0,1.29752,-0.726775,-0.645246
 \H,0,0.009508,0.827982,2.072616\H,0,2.33553,0.561789,2.84134\H,0,4.018
 25,-0.519645,1.373626\H,0,3.339886,-1.343946,-0.866516\H,0,1.00502,-1.
 110903,-1.617741\C,0,-1.065646,0.021555,-0.281874\C,0,-1.364159,0.4443
 51,-1.582904\C,0,-2.670517,0.582842,-2.01189\C,0,-3.728244,0.298909,-1
 .145539\C,0,-3.453846,-0.125054,0.152119\C,0,-2.13165,-0.257713,0.5680
 01\H,0,-0.555488,0.690574,-2.264157\H,0,-2.897661,0.920667,-3.016917\O
 ,0,-4.97427,0.465516,-1.655844\H,0,-4.249133,-0.364611,0.847237\H,0,-1
 .934317,-0.611307,1.575374\C,0,-6.078529,0.183301,-0.827847\H,0,-6.963
 716,0.384245,-1.428693\H,0,-6.085692,-0.866891,-0.515414\H,0,-6.091076
 ,0.827147,0.058593\\Version=ES64L-G09RevD.01\HF=-577.7529196\RMSD=7.34
 5e-09\PG=C01 [X(C13H12O1)]\\@


 Just remember, when you're over the hill, you begin to pick up speed.
 -- Charles Schulz
 Job cpu time:       0 days  1 hours 32 minutes 37.2 seconds.
 File lengths (MBytes):  RWF=    312 Int=      0 D2E=      0 Chk=     42 Scr=      1
 Normal termination of Gaussian 09 at Mon Oct  2 16:04:34 2017.
