 Entering Gaussian System, Link 0=g09
 Input=m4_s1t.com
 Output=m4_s1t.out
 Initial command:
 /share/apps/gaussian/g09_D01/g09/l1.exe "/tmp/141685.1.all.q/Gau-4033.inp" -scrdir="/tmp/141685.1.all.q/"
 Entering Link 1 = /share/apps/gaussian/g09_D01/g09/l1.exe PID=      4034.
  
 Copyright (c) 1988,1990,1992,1993,1995,1998,2003,2009,2013,
            Gaussian, Inc.  All Rights Reserved.
  
 This is part of the Gaussian(R) 09 program.  It is based on
 the Gaussian(R) 03 system (copyright 2003, Gaussian, Inc.),
 the Gaussian(R) 98 system (copyright 1998, Gaussian, Inc.),
 the Gaussian(R) 94 system (copyright 1995, Gaussian, Inc.),
 the Gaussian 92(TM) system (copyright 1992, Gaussian, Inc.),
 the Gaussian 90(TM) system (copyright 1990, Gaussian, Inc.),
 the Gaussian 88(TM) system (copyright 1988, Gaussian, Inc.),
 the Gaussian 86(TM) system (copyright 1986, Carnegie Mellon
 University), and the Gaussian 82(TM) system (copyright 1983,
 Carnegie Mellon University). Gaussian is a federally registered
 trademark of Gaussian, Inc.
  
 This software contains proprietary and confidential information,
 including trade secrets, belonging to Gaussian, Inc.
  
 This software is provided under written license and may be
 used, copied, transmitted, or stored only in accord with that
 written license.
  
 The following legend is applicable only to US Government
 contracts under FAR:
  
                    RESTRICTED RIGHTS LEGEND
  
 Use, reproduction and disclosure by the US Government is
 subject to restrictions as set forth in subparagraphs (a)
 and (c) of the Commercial Computer Software - Restricted
 Rights clause in FAR 52.227-19.
  
 Gaussian, Inc.
 340 Quinnipiac St., Bldg. 40, Wallingford CT 06492
  
  
 ---------------------------------------------------------------
 Warning -- This program may not be used in any manner that
 competes with the business of Gaussian, Inc. or will provide
 assistance to any competitor of Gaussian, Inc.  The licensee
 of this program is prohibited from giving any competitor of
 Gaussian, Inc. access to this program.  By using this program,
 the user acknowledges that Gaussian, Inc. is engaged in the
 business of creating and licensing software in the field of
 computational chemistry and represents and warrants to the
 licensee that it is not a competitor of Gaussian, Inc. and that
 it will not use this program in any manner prohibited above.
 ---------------------------------------------------------------
  

 Cite this work as:
 Gaussian 09, Revision D.01,
 M. J. Frisch, G. W. Trucks, H. B. Schlegel, G. E. Scuseria, 
 M. A. Robb, J. R. Cheeseman, G. Scalmani, V. Barone, B. Mennucci, 
 G. A. Petersson, H. Nakatsuji, M. Caricato, X. Li, H. P. Hratchian, 
 A. F. Izmaylov, J. Bloino, G. Zheng, J. L. Sonnenberg, M. Hada, 
 M. Ehara, K. Toyota, R. Fukuda, J. Hasegawa, M. Ishida, T. Nakajima, 
 Y. Honda, O. Kitao, H. Nakai, T. Vreven, J. A. Montgomery, Jr., 
 J. E. Peralta, F. Ogliaro, M. Bearpark, J. J. Heyd, E. Brothers, 
 K. N. Kudin, V. N. Staroverov, T. Keith, R. Kobayashi, J. Normand, 
 K. Raghavachari, A. Rendell, J. C. Burant, S. S. Iyengar, J. Tomasi, 
 M. Cossi, N. Rega, J. M. Millam, M. Klene, J. E. Knox, J. B. Cross, 
 V. Bakken, C. Adamo, J. Jaramillo, R. Gomperts, R. E. Stratmann, 
 O. Yazyev, A. J. Austin, R. Cammi, C. Pomelli, J. W. Ochterski, 
 R. L. Martin, K. Morokuma, V. G. Zakrzewski, G. A. Voth, 
 P. Salvador, J. J. Dannenberg, S. Dapprich, A. D. Daniels, 
 O. Farkas, J. B. Foresman, J. V. Ortiz, J. Cioslowski, 
 and D. J. Fox, Gaussian, Inc., Wallingford CT, 2013.
 
 ******************************************
 Gaussian 09:  ES64L-G09RevD.01 24-Apr-2013
                 4-Oct-2017 
 ******************************************
 %chk=m4_s1t
 %mem=12GB
 %nproc=2
 Will use up to    2 processors via shared memory.
 ---------------------------------------
 #wb97xd 6-311+G(d) td=(nstates=2,50-50)
 ---------------------------------------
 1/38=1/1;
 2/12=2,17=6,18=5,40=1/2;
 3/5=4,6=6,7=11,11=9,16=1,25=1,30=1,74=-58/1,2,8,3;
 4//1;
 5/5=2,38=5/2;
 8/6=1,10=2,108=2/1;
 9/41=2,42=1,48=2,70=2/14;
 6/7=2,8=2,9=2,10=2/1;
 99/5=1,9=1/99;
 ----------
 s1triplets
 ----------
 Symbolic Z-matrix:
 Charge =  0 Multiplicity = 1
 C                     0.30517  -0.14281   0.14737 
 C                     0.64625  -0.15258   1.55747 
 C                     1.95393  -0.25013   1.97226 
 C                     3.00307  -0.34311   1.04873 
 C                     2.7087   -0.3356   -0.329 
 C                     1.41565  -0.23958  -0.77384 
 H                    -0.12969  -0.08258   2.30866 
 H                     2.17502  -0.25489   3.03522 
 H                     4.0298   -0.41969   1.39008 
 H                     3.51654  -0.40667  -1.05065 
 H                     1.23603  -0.23715  -1.8419 
 C                    -1.02977  -0.04508  -0.28655 
 C                    -1.39187  -0.03455  -1.68826 
 C                    -2.68612   0.06143  -2.09988 
 C                    -3.74006   0.15556  -1.15369 
 C                    -3.44213   0.14878   0.21984 
 C                    -2.14035   0.05241   0.65025 
 H                    -0.61993  -0.10451  -2.44367 
 H                    -2.94201   0.06819  -3.15349 
 O                    -4.97645   0.24594  -1.67535 
 H                    -4.2328    0.21917   0.95761 
 H                    -1.95372   0.05035   1.71516 
 C                    -6.0827    0.34414  -0.8031 
 H                    -6.96149   0.40598  -1.44154 
 H                    -6.15843  -0.54022  -0.16155 
 H                    -6.01704   1.24462  -0.18324 
 
                          Input orientation:                          
 ---------------------------------------------------------------------
 Center     Atomic      Atomic             Coordinates (Angstroms)
 Number     Number       Type             X           Y           Z
 ---------------------------------------------------------------------
      1          6           0        0.305172   -0.142807    0.147374
      2          6           0        0.646250   -0.152576    1.557474
      3          6           0        1.953933   -0.250129    1.972262
      4          6           0        3.003069   -0.343107    1.048733
      5          6           0        2.708704   -0.335595   -0.329001
      6          6           0        1.415651   -0.239582   -0.773837
      7          1           0       -0.129689   -0.082577    2.308660
      8          1           0        2.175015   -0.254891    3.035217
      9          1           0        4.029800   -0.419690    1.390079
     10          1           0        3.516544   -0.406666   -1.050652
     11          1           0        1.236027   -0.237150   -1.841896
     12          6           0       -1.029769   -0.045082   -0.286549
     13          6           0       -1.391869   -0.034547   -1.688260
     14          6           0       -2.686121    0.061427   -2.099882
     15          6           0       -3.740057    0.155557   -1.153686
     16          6           0       -3.442132    0.148777    0.219842
     17          6           0       -2.140352    0.052405    0.650245
     18          1           0       -0.619931   -0.104509   -2.443674
     19          1           0       -2.942013    0.068194   -3.153492
     20          8           0       -4.976447    0.245943   -1.675350
     21          1           0       -4.232798    0.219171    0.957607
     22          1           0       -1.953722    0.050346    1.715155
     23          6           0       -6.082704    0.344143   -0.803099
     24          1           0       -6.961494    0.405977   -1.441541
     25          1           0       -6.158426   -0.540217   -0.161552
     26          1           0       -6.017038    1.244624   -0.183239
 ---------------------------------------------------------------------
                    Distance matrix (angstroms):
                    1          2          3          4          5
     1  C    0.000000
     2  C    1.450797   0.000000
     3  C    2.461737   1.375355   0.000000
     4  C    2.851529   2.418618   1.400799   0.000000
     5  C    2.457858   2.801071   2.423385   1.408850   0.000000
     6  C    1.446084   2.456534   2.798378   2.419168   1.370797
     7  H    2.205423   1.082248   2.117243   3.386660   3.883008
     8  H    3.442167   2.128689   1.085713   2.153967   3.407242
     9  H    3.936221   3.398203   2.162617   1.084693   2.169701
    10  H    3.437702   3.886576   3.406503   2.162201   1.085558
    11  H    2.198315   3.451189   3.881154   3.389602   2.113604
    12  C    1.407092   2.494196   3.747899   4.258589   3.749984
    13  C    2.502243   3.834403   4.963898   5.186696   4.330463
    14  C    3.746959   4.952449   6.181385   6.514930   5.691905
    15  C    4.259772   5.165755   6.508276   7.111193   6.519805
    16  C    3.759330   4.312185   5.687497   6.516872   6.194242
    17  C    2.504311   2.937726   4.313053   5.173974   4.962138
    18  H    2.751511   4.196988   5.113362   5.037853   3.950323
    19  H    4.635132   5.926008   7.095419   7.291904   6.330197
    20  O    5.600799   6.498053   7.847377   8.452235   7.823835
    21  H    4.623924   4.929822   6.286924   7.258253   7.081495
    22  H    2.756419   2.612641   3.927615   5.016842   5.105462
    23  C    6.476533   7.148276   8.523105   9.298003   8.830383
    24  H    7.458569   8.196575   9.569188  10.298306   9.762193
    25  H    6.483168   7.029149   8.393312   9.243194   8.871071
    26  H    6.481096   7.027208   8.391475   9.241265   8.868873
                    6          7          8          9         10
     6  C    0.000000
     7  H    3.451741   0.000000
     8  H    3.884039   2.422651   0.000000
     9  H    3.398345   4.273030   2.484726   0.000000
    10  H    2.125628   4.968403   4.303145   2.494147   0.000000
    11  H    1.083061   4.372206   4.966714   4.275997   2.419827
    12  C    2.501072   2.747118   4.620475   5.343281   4.624236
    13  C    2.959793   4.191751   5.923044   6.246519   4.963621
    14  C    4.321289   5.098169   7.078131   7.583858   6.308173
    15  C    5.184761   5.007924   7.259714   8.195873   7.279077
    16  C    4.973558   3.922877   6.296160   7.584351   7.095481
    17  C    3.841669   2.609852   4.940133   6.232255   5.924886
    18  H    2.636322   4.777604   6.152445   6.034650   4.375184
    19  H    4.974607   6.145486   8.036696   8.335961   6.808846
    20  O    6.473591   6.282621   8.578093   9.536897   8.540904
    21  H    5.925650   4.330346   6.752871   8.298536   8.029762
    22  H    4.199025   1.922762   4.345366   6.010752   6.146736
    23  C    7.521098   6.730789   9.125866  10.375751   9.631747
    24  H    8.428472   7.808729  10.195779  11.380173  10.516771
    25  H    7.604730   6.531237   8.930117  10.306407   9.716655
    26  H    7.602404   6.529311   8.928423  10.304573   9.714337
                   11         12         13         14         15
    11  H    0.000000
    12  C    2.754964   0.000000
    13  C    2.640168   1.447764   0.000000
    14  C    3.941947   2.458256   1.361518   0.000000
    15  C    5.038776   2.852691   2.415760   1.419482   0.000000
    16  C    5.126878   2.472551   2.806785   2.441373   1.405484
    17  C    4.206488   1.456187   2.456907   2.803773   2.413268
    18  H    1.955584   2.196517   1.082328   2.101159   3.386280
    19  H    4.389708   3.448024   2.135511   1.084260   2.154932
    20  O    6.233454   4.194011   3.595558   2.336636   1.344977
    21  H    6.160641   3.446324   3.890484   3.430063   2.168963
    22  H    4.786415   2.206720   3.450524   3.884719   3.381170
    23  C    7.414906   5.094161   4.788617   3.646690   2.376230
    24  H    8.232451   6.059936   5.592464   4.339463   3.243952
    25  H    7.589028   5.154018   5.030567   4.021940   2.704984
    26  H    7.586419   5.152365   5.029270   4.021005   2.704159
                   16         17         18         19         20
    16  C    0.000000
    17  C    1.374469   0.000000
    18  H    3.888867   3.450889   0.000000
    19  H    3.411157   3.887329   2.434283   0.000000
    20  O    2.440352   3.672776   4.437609   2.520996   0.000000
    21  H    1.083700   2.121465   4.972554   4.311619   2.736091
    22  H    2.112111   1.081142   4.370222   4.967974   4.546499
    23  C    2.838520   4.211824   5.721421   3.932485   1.412186
    24  H    3.900289   5.267257   6.440519   4.381906   2.005166
    25  H    2.828149   4.141876   6.006068   4.434770   2.075261
    26  H    2.827277   4.140625   6.004872   4.434204   2.075232
                   21         22         23         24         25
    21  H    0.000000
    22  H    2.407606   0.000000
    23  C    2.556923   4.845246   0.000000
    24  H    3.638212   5.930344   1.087981   0.000000
    25  H    2.353132   4.642233   1.095175   1.782855   0.000000
    26  H    2.352997   4.641200   1.095173   1.782877   1.790564
                   26
    26  H    0.000000
 Stoichiometry    C13H12O
 Framework group  C1[X(C13H12O)]
 Deg. of freedom    72
 Full point group                 C1      NOp   1
 Largest Abelian subgroup         C1      NOp   1
 Largest concise Abelian subgroup C1      NOp   1
                         Standard orientation:                         
 ---------------------------------------------------------------------
 Center     Atomic      Atomic             Coordinates (Angstroms)
 Number     Number       Type             X           Y           Z
 ---------------------------------------------------------------------
      1          6           0        1.589415    0.011878    0.000588
      2          6           0        2.273093   -1.267730    0.000352
      3          6           0        3.646531   -1.340314   -0.000354
      4          6           0        4.434342   -0.182043   -0.000457
      5          6           0        3.804040    1.077947    0.000767
      6          6           0        2.437299    1.183309    0.001435
      7          1           0        1.707434   -2.190385    0.000836
      8          1           0        4.126931   -2.313961   -0.000736
      9          1           0        5.516632   -0.254205   -0.001189
     10          1           0        4.407980    1.979996    0.001336
     11          1           0        1.995807    2.172301    0.002775
     12          6           0        0.184852    0.096185   -0.000421
     13          6           0       -0.517070    1.362411   -0.001154
     14          6           0       -1.876634    1.435326   -0.001017
     15          6           0       -2.663477    0.253883   -0.000412
     16          6           0       -2.030846   -1.001172   -0.000579
     17          6           0       -0.659275   -1.090378   -0.000754
     18          1           0        0.043663    2.288159   -0.001861
     19          1           0       -2.388438    2.391190   -0.001452
     20          8           0       -3.994385    0.447907   -0.000028
     21          1           0       -2.614116   -1.914518   -0.000683
     22          1           0       -0.211837   -2.074587   -0.001140
     23          6           0       -4.850577   -0.675126    0.001463
     24          1           0       -5.863516   -0.278064    0.002557
     25          1           0       -4.698929   -1.287476   -0.893769
     26          1           0       -4.696677   -1.286765    0.896793
 ---------------------------------------------------------------------
 Rotational constants (GHZ):      2.5548651      0.3112136      0.2779134
 Standard basis: 6-311+G(d) (5D, 7F)
 There are   358 symmetry adapted cartesian basis functions of A   symmetry.
 There are   344 symmetry adapted basis functions of A   symmetry.
   344 basis functions,   564 primitive gaussians,   358 cartesian basis functions
    49 alpha electrons       49 beta electrons
       nuclear repulsion energy       785.2510498611 Hartrees.
 NAtoms=   26 NActive=   26 NUniq=   26 SFac= 1.00D+00 NAtFMM=   60 NAOKFM=F Big=F
 Integral buffers will be    131072 words long.
 Raffenetti 1 integral format.
 Two-electron integral symmetry is turned on.
 Nuclear repulsion after empirical dispersion term =      785.2363395836 Hartrees.
 One-electron integrals computed using PRISM.
 NBasis=   344 RedAO= T EigKep=  1.27D-06  NBF=   344
 NBsUse=   340 1.00D-06 EigRej=  9.53D-07 NBFU=   340
 ExpMin= 4.38D-02 ExpMax= 8.59D+03 ExpMxC= 1.30D+03 IAcc=2 IRadAn=         4 AccDes= 0.00D+00
 Harris functional with IExCor= 4639 and IRadAn=       4 diagonalized for initial guess.
 HarFok:  IExCor= 4639 AccDes= 0.00D+00 IRadAn=         4 IDoV= 1 UseB2=F ITyADJ=14
 ICtDFT=  3500011 ScaDFX=  1.000000  1.000000  1.000000  1.000000
 FoFCou: FMM=F IPFlag=           0 FMFlag=      100000 FMFlg1=           0
         NFxFlg=           0 DoJE=T BraDBF=F KetDBF=T FulRan=T
         wScrn=  0.000000 ICntrl=     500 IOpCl=  0 I1Cent=   200000004 NGrid=           0
         NMat0=    1 NMatS0=      1 NMatT0=    0 NMatD0=    1 NMtDS0=    0 NMtDT0=    0
 Petite list used in FoFCou.
 Requested convergence on RMS density matrix=1.00D-08 within 128 cycles.
 Requested convergence on MAX density matrix=1.00D-06.
 Requested convergence on             energy=1.00D-06.
 No special actions if energy rises.
 SCF Done:  E(RwB97XD) =  -577.735611575     A.U. after   16 cycles
            NFock= 16  Conv=0.53D-08     -V/T= 2.0044
 DoSCS=F DFT=T ScalE2(SS,OS)=  1.000000  1.000000
 ExpMin= 4.38D-02 ExpMax= 8.59D+03 ExpMxC= 1.30D+03 IAcc=3 IRadAn=         5 AccDes= 0.00D+00
 HarFok:  IExCor=  205 AccDes= 0.00D+00 IRadAn=         5 IDoV=-2 UseB2=F ITyADJ=14
 ICtDFT= 12500011 ScaDFX=  1.000000  1.000000  1.000000  1.000000
 Range of M.O.s used for correlation:    15   340
 NBasis=   344 NAE=    49 NBE=    49 NFC=    14 NFV=     0
 NROrb=    326 NOA=    35 NOB=    35 NVA=   291 NVB=   291

 **** Warning!!: The largest alpha MO coefficient is  0.16152282D+03

 Would need an additional          8980400000 words for in-memory AO integral storage.
 Orbital symmetries:
       Occupied  (A) (A) (A) (A) (A) (A) (A) (A) (A) (A) (A) (A)
                 (A) (A) (A) (A) (A) (A) (A) (A) (A) (A) (A) (A)
                 (A) (A) (A) (A) (A) (A) (A) (A) (A) (A) (A) (A)
                 (A) (A) (A) (A) (A) (A) (A) (A) (A) (A) (A) (A)
                 (A)
       Virtual   (A) (A) (A) (A) (A) (A) (A) (A) (A) (A) (A) (A)
                 (A) (A) (A) (A) (A) (A) (A) (A) (A) (A) (A) (A)
                 (A) (A) (A) (A) (A) (A) (A) (A) (A) (A) (A) (A)
                 (A) (A) (A) (A) (A) (A) (A) (A) (A) (A) (A) (A)
                 (A) (A) (A) (A) (A) (A) (A) (A) (A) (A) (A) (A)
                 (A) (A) (A) (A) (A) (A) (A) (A) (A) (A) (A) (A)
                 (A) (A) (A) (A) (A) (A) (A) (A) (A) (A) (A) (A)
                 (A) (A) (A) (A) (A) (A) (A) (A) (A) (A) (A) (A)
                 (A) (A) (A) (A) (A) (A) (A) (A) (A) (A) (A) (A)
                 (A) (A) (A) (A) (A) (A) (A) (A) (A) (A) (A) (A)
                 (A) (A) (A) (A) (A) (A) (A) (A) (A) (A) (A) (A)
                 (A) (A) (A) (A) (A) (A) (A) (A) (A) (A) (A) (A)
                 (A) (A) (A) (A) (A) (A) (A) (A) (A) (A) (A) (A)
                 (A) (A) (A) (A) (A) (A) (A) (A) (A) (A) (A) (A)
                 (A) (A) (A) (A) (A) (A) (A) (A) (A) (A) (A) (A)
                 (A) (A) (A) (A) (A) (A) (A) (A) (A) (A) (A) (A)
                 (A) (A) (A) (A) (A) (A) (A) (A) (A) (A) (A) (A)
                 (A) (A) (A) (A) (A) (A) (A) (A) (A) (A) (A) (A)
                 (A) (A) (A) (A) (A) (A) (A) (A) (A) (A) (A) (A)
                 (A) (A) (A) (A) (A) (A) (A) (A) (A) (A) (A) (A)
                 (A) (A) (A) (A) (A) (A) (A) (A) (A) (A) (A) (A)
                 (A) (A) (A) (A) (A) (A) (A) (A) (A) (A) (A) (A)
                 (A) (A) (A) (A) (A) (A) (A) (A) (A) (A) (A) (A)
                 (A) (A) (A) (A) (A) (A) (A) (A) (A) (A) (A) (A)
                 (A) (A) (A)
    16 initial guesses have been made.
 Convergence on wavefunction:    0.001000000000000
 Iteration     1 Dimension    16 NMult     0 NNew     16
 CISAX will form    16 AO SS matrices at one time.
 New state      1 was old state      2
 New state      2 was old state      4
 New state      3 was old state      1
 New state      4 was old state      3
 Iteration     2 Dimension    24 NMult    16 NNew      8
 Iteration     3 Dimension    32 NMult    24 NNew      8
 Iteration     4 Dimension    40 NMult    32 NNew      8
 Iteration     5 Dimension    48 NMult    40 NNew      8
 Iteration     6 Dimension    56 NMult    48 NNew      8
 Iteration     7 Dimension    64 NMult    56 NNew      8
 Iteration     8 Dimension    68 NMult    64 NNew      4
 Iteration     9 Dimension    70 NMult    68 NNew      2
 Iteration    10 Dimension    72 NMult    70 NNew      2
 Iteration    11 Dimension    74 NMult    72 NNew      2
 ***********************************************************************
 Excited states from <AA,BB:AA,BB> singles matrix:
 ***********************************************************************
 
 Ground to excited state transition densities written to RWF  633
 Ground to excited state transition electric dipole moments (Au):
       state          X           Y           Z        Dip. S.      Osc.
         1         0.0000      0.0000      0.0000      0.0000      0.0000
         2         0.0000      0.0000      0.0000      0.0000      0.0000
         3        -2.6256     -0.0008     -0.0002      6.8938      0.6824
         4         0.3569     -0.1868      0.0002      0.1623      0.0178
 Ground to excited state transition velocity dipole moments (Au):
       state          X           Y           Z        Dip. S.      Osc.
         1         0.0000      0.0000      0.0000      0.0000      0.0000
         2         0.0000      0.0000      0.0000      0.0000      0.0000
         3         0.3917      0.0008      0.0000      0.1535      0.6889
         4        -0.0582      0.0325      0.0000      0.0044      0.0180
 Ground to excited state transition magnetic dipole moments (Au):
       state          X           Y           Z
         1         0.0000      0.0000      0.0000
         2         0.0000      0.0000      0.0000
         3        -0.0001     -0.0002     -0.3322
         4         0.0004      0.0002     -0.8228
 Ground to excited state transition velocity quadrupole moments (Au):
       state          XX          YY          ZZ          XY          XZ          YZ
         1         0.0000      0.0000      0.0000      0.0000      0.0000      0.0000
         2         0.0000      0.0000      0.0000      0.0000      0.0000      0.0000
         3         0.6508      0.0252      0.0197     -0.1934      0.0001      0.0001
         4        -0.1508      0.0609     -0.0209     -0.4702      0.0000     -0.0001
 <0|del|b> * <b|rxdel|0> + <0|del|b> * <b|delr+rdel|0>
 Rotatory Strengths (R) in cgs (10**-40 erg-esu-cm/Gauss)
       state          XX          YY          ZZ    R(velocity)    E-M Angle
         1         0.0000      0.0000      0.0000      0.0000       90.00
         2         0.0000      0.0000      0.0000      0.0000       90.00
         3        -0.0420      0.0116     -0.1578     -0.0627       90.00
         4         0.0982     -0.0177     -0.0573      0.0078       90.00
 1/2[<0|r|b>*<b|rxdel|0> + (<0|rxdel|b>*<b|r|0>)*]
 Rotatory Strengths (R) in cgs (10**-40 erg-esu-cm/Gauss)
       state          XX          YY          ZZ     R(length)
         1         0.0000      0.0000      0.0000      0.0000
         2         0.0000      0.0000      0.0000      0.0000
         3        -0.1344     -0.0001     -0.0470     -0.0605
         4        -0.1083      0.0236      0.0918      0.0024
  1/2[<0|del|b>*<b|r|0> + (<0|r|b>*<b|del|0>)*] (Au)
       state          X           Y           Z        Dip. S.   Osc.(frdel)
         1         0.0000      0.0000      0.0000      0.0000      0.0000
         2         0.0000      0.0000      0.0000      0.0000      0.0000
         3        -1.0285      0.0000      0.0000      1.0285      0.6857
         4        -0.0208     -0.0061      0.0000      0.0268      0.0179

 Excitation energies and oscillator strengths:
 
 Excited State   1:      Triplet-A      2.2527 eV  550.38 nm  f=0.0000  <S**2>=2.000
      46 -> 61        -0.11075
      48 -> 51         0.11165
      49 -> 50         0.67536
      49 <- 50         0.14265
 This state for optimization and/or second-order correction.
 Total Energy, E(TD-HF/TD-KS) =  -577.652826449    
 Copying the excited state density for this state as the 1-particle RhoCI density.
 
 Excited State   2:      Triplet-A      3.7799 eV  328.01 nm  f=0.0000  <S**2>=2.000
      46 -> 50        -0.14263
      46 -> 55        -0.10226
      47 -> 50        -0.13553
      47 -> 51        -0.10658
      48 -> 55         0.10464
      49 -> 51         0.58826
      49 -> 55         0.16596
      49 -> 61         0.11807
 
 Excited State   3:      Singlet-A      4.0407 eV  306.84 nm  f=0.6824  <S**2>=0.000
      49 -> 50         0.69269
 
 Excited State   4:      Singlet-A      4.4791 eV  276.81 nm  f=0.0178  <S**2>=0.000
      46 -> 55        -0.11214
      47 -> 50         0.11892
      48 -> 50        -0.20680
      49 -> 51         0.63714
 SavETr:  write IOETrn=   770 NScale= 10 NData=  16 NLR=1 NState=    4 LETran=      82.

 **********************************************************************

            Population analysis using the SCF density.

 **********************************************************************

 Orbital symmetries:
       Occupied  (A) (A) (A) (A) (A) (A) (A) (A) (A) (A) (A) (A)
                 (A) (A) (A) (A) (A) (A) (A) (A) (A) (A) (A) (A)
                 (A) (A) (A) (A) (A) (A) (A) (A) (A) (A) (A) (A)
                 (A) (A) (A) (A) (A) (A) (A) (A) (A) (A) (A) (A)
                 (A)
       Virtual   (A) (A) (A) (A) (A) (A) (A) (A) (A) (A) (A) (A)
                 (A) (A) (A) (A) (A) (A) (A) (A) (A) (A) (A) (A)
                 (A) (A) (A) (A) (A) (A) (A) (A) (A) (A) (A) (A)
                 (A) (A) (A) (A) (A) (A) (A) (A) (A) (A) (A) (A)
                 (A) (A) (A) (A) (A) (A) (A) (A) (A) (A) (A) (A)
                 (A) (A) (A) (A) (A) (A) (A) (A) (A) (A) (A) (A)
                 (A) (A) (A) (A) (A) (A) (A) (A) (A) (A) (A) (A)
                 (A) (A) (A) (A) (A) (A) (A) (A) (A) (A) (A) (A)
                 (A) (A) (A) (A) (A) (A) (A) (A) (A) (A) (A) (A)
                 (A) (A) (A) (A) (A) (A) (A) (A) (A) (A) (A) (A)
                 (A) (A) (A) (A) (A) (A) (A) (A) (A) (A) (A) (A)
                 (A) (A) (A) (A) (A) (A) (A) (A) (A) (A) (A) (A)
                 (A) (A) (A) (A) (A) (A) (A) (A) (A) (A) (A) (A)
                 (A) (A) (A) (A) (A) (A) (A) (A) (A) (A) (A) (A)
                 (A) (A) (A) (A) (A) (A) (A) (A) (A) (A) (A) (A)
                 (A) (A) (A) (A) (A) (A) (A) (A) (A) (A) (A) (A)
                 (A) (A) (A) (A) (A) (A) (A) (A) (A) (A) (A) (A)
                 (A) (A) (A) (A) (A) (A) (A) (A) (A) (A) (A) (A)
                 (A) (A) (A) (A) (A) (A) (A) (A) (A) (A) (A) (A)
                 (A) (A) (A) (A) (A) (A) (A) (A) (A) (A) (A) (A)
                 (A) (A) (A) (A) (A) (A) (A) (A) (A) (A) (A) (A)
                 (A) (A) (A) (A) (A) (A) (A) (A) (A) (A) (A) (A)
                 (A) (A) (A) (A) (A) (A) (A) (A) (A) (A) (A) (A)
                 (A) (A) (A) (A) (A) (A) (A) (A) (A) (A) (A) (A)
                 (A) (A) (A)
 The electronic state is 1-A.
 Alpha  occ. eigenvalues --  -19.28777 -10.35737 -10.34252 -10.30572 -10.30083
 Alpha  occ. eigenvalues --  -10.29884 -10.29505 -10.29187 -10.28928 -10.28873
 Alpha  occ. eigenvalues --  -10.28764 -10.28732 -10.28695 -10.28682  -1.18693
 Alpha  occ. eigenvalues --   -0.97016  -0.94665  -0.88373  -0.86324  -0.84910
 Alpha  occ. eigenvalues --   -0.83502  -0.78886  -0.72682  -0.71677  -0.68195
 Alpha  occ. eigenvalues --   -0.67231  -0.63925  -0.61236  -0.58290  -0.57840
 Alpha  occ. eigenvalues --   -0.57092  -0.53734  -0.53159  -0.52813  -0.52342
 Alpha  occ. eigenvalues --   -0.50721  -0.49619  -0.48167  -0.47254  -0.45801
 Alpha  occ. eigenvalues --   -0.45293  -0.43673  -0.42627  -0.41579  -0.39999
 Alpha  occ. eigenvalues --   -0.34897  -0.34157  -0.33303  -0.26486
 Alpha virt. eigenvalues --    0.01062   0.04630   0.05762   0.06612   0.07320
 Alpha virt. eigenvalues --    0.07324   0.07929   0.08461   0.09623   0.09636
 Alpha virt. eigenvalues --    0.09961   0.10454   0.10829   0.11844   0.11962
 Alpha virt. eigenvalues --    0.12515   0.13735   0.13923   0.14106   0.15167
 Alpha virt. eigenvalues --    0.16075   0.16534   0.16812   0.17575   0.18583
 Alpha virt. eigenvalues --    0.18756   0.19310   0.19373   0.19708   0.20757
 Alpha virt. eigenvalues --    0.20979   0.21057   0.21931   0.22342   0.22600
 Alpha virt. eigenvalues --    0.22650   0.22920   0.23363   0.24348   0.24464
 Alpha virt. eigenvalues --    0.25493   0.25635   0.25807   0.26115   0.26371
 Alpha virt. eigenvalues --    0.26822   0.26848   0.27140   0.27860   0.28164
 Alpha virt. eigenvalues --    0.28570   0.28855   0.29167   0.30158   0.30760
 Alpha virt. eigenvalues --    0.31437   0.31442   0.31974   0.33348   0.33997
 Alpha virt. eigenvalues --    0.34517   0.34612   0.35204   0.35738   0.36400
 Alpha virt. eigenvalues --    0.36565   0.37364   0.37543   0.38652   0.40007
 Alpha virt. eigenvalues --    0.40313   0.40849   0.41620   0.42669   0.43272
 Alpha virt. eigenvalues --    0.44392   0.45336   0.46077   0.49214   0.50471
 Alpha virt. eigenvalues --    0.51125   0.52310   0.53848   0.56984   0.57966
 Alpha virt. eigenvalues --    0.58540   0.59423   0.60463   0.61090   0.61726
 Alpha virt. eigenvalues --    0.63174   0.63346   0.63357   0.63963   0.64172
 Alpha virt. eigenvalues --    0.64959   0.66207   0.66416   0.66497   0.67641
 Alpha virt. eigenvalues --    0.69707   0.70350   0.70889   0.71336   0.71515
 Alpha virt. eigenvalues --    0.71910   0.72698   0.74977   0.75654   0.76172
 Alpha virt. eigenvalues --    0.76277   0.77970   0.78134   0.78843   0.80122
 Alpha virt. eigenvalues --    0.80840   0.80907   0.81971   0.82636   0.84488
 Alpha virt. eigenvalues --    0.85387   0.86869   0.88160   0.90041   0.92132
 Alpha virt. eigenvalues --    0.92385   0.93650   0.93843   0.94712   0.96733
 Alpha virt. eigenvalues --    0.97176   0.98078   0.99115   1.00068   1.01284
 Alpha virt. eigenvalues --    1.03091   1.03317   1.04663   1.06596   1.07056
 Alpha virt. eigenvalues --    1.07975   1.08288   1.10835   1.11132   1.14407
 Alpha virt. eigenvalues --    1.15912   1.17147   1.18514   1.19635   1.19836
 Alpha virt. eigenvalues --    1.21962   1.22036   1.25629   1.27487   1.27784
 Alpha virt. eigenvalues --    1.28749   1.30549   1.31304   1.31471   1.33365
 Alpha virt. eigenvalues --    1.37928   1.39912   1.42655   1.44235   1.46574
 Alpha virt. eigenvalues --    1.55258   1.57884   1.58710   1.60032   1.61329
 Alpha virt. eigenvalues --    1.61676   1.63656   1.64959   1.65419   1.67206
 Alpha virt. eigenvalues --    1.71247   1.73020   1.78567   1.79511   1.80761
 Alpha virt. eigenvalues --    1.82982   1.83411   1.86116   1.87325   1.87376
 Alpha virt. eigenvalues --    1.87986   1.92126   1.93523   1.93544   1.94449
 Alpha virt. eigenvalues --    1.96079   1.96863   1.98107   2.01375   2.01787
 Alpha virt. eigenvalues --    2.03801   2.03963   2.04171   2.08636   2.12861
 Alpha virt. eigenvalues --    2.15031   2.17139   2.23314   2.26456   2.27002
 Alpha virt. eigenvalues --    2.35739   2.35829   2.36252   2.39891   2.41085
 Alpha virt. eigenvalues --    2.44108   2.46242   2.46611   2.46674   2.48289
 Alpha virt. eigenvalues --    2.50013   2.51780   2.57029   2.58657   2.60563
 Alpha virt. eigenvalues --    2.63921   2.70027   2.73196   2.73667   2.76114
 Alpha virt. eigenvalues --    2.81406   2.83278   2.84404   2.85533   2.88879
 Alpha virt. eigenvalues --    2.90488   2.91318   2.93378   2.96778   2.97294
 Alpha virt. eigenvalues --    2.97823   3.03693   3.06186   3.08998   3.09853
 Alpha virt. eigenvalues --    3.16461   3.17557   3.17815   3.24182   3.26812
 Alpha virt. eigenvalues --    3.27456   3.31043   3.32558   3.33101   3.35348
 Alpha virt. eigenvalues --    3.40849   3.41942   3.42981   3.45749   3.46937
 Alpha virt. eigenvalues --    3.48023   3.49423   3.49688   3.51459   3.59129
 Alpha virt. eigenvalues --    3.68658   3.73417   3.74666   3.77101   3.77899
 Alpha virt. eigenvalues --    3.96117   4.05699   4.08403   4.12189   4.17592
 Alpha virt. eigenvalues --    4.24081   4.66059   4.83172   4.89627   5.11968
 Alpha virt. eigenvalues --    5.45982   5.84605  23.42364  23.63602  23.67027
 Alpha virt. eigenvalues --   23.87849  23.90636  23.97591  24.06120  24.08016
 Alpha virt. eigenvalues --   24.15524  24.22084  24.23466  24.27625  24.29031
 Alpha virt. eigenvalues --   50.08510
          Condensed to atoms (all electrons):
               1          2          3          4          5          6
     1  C    7.316831  -1.461686   0.866225  -0.756498   0.308341  -0.654626
     2  C   -1.461686  15.812132  -5.998336   1.197124  -0.351857  -2.054485
     3  C    0.866225  -5.998336  11.895716  -0.480283   0.816061  -0.474814
     4  C   -0.756498   1.197124  -0.480283   6.002470   0.443510   0.132844
     5  C    0.308341  -0.351857   0.816061   0.443510   8.344885  -2.129343
     6  C   -0.654626  -2.054485  -0.474814   0.132844  -2.129343  11.949530
     7  H    0.021820   0.372326  -0.136809  -0.014663  -0.010905  -0.021696
     8  H    0.016925   0.006667   0.291922   0.025614  -0.017631   0.000485
     9  H    0.052377  -0.108380   0.084957   0.281208   0.055217  -0.040213
    10  H    0.003705   0.031276  -0.041081   0.061136   0.317802  -0.038266
    11  H    0.026593  -0.043943   0.004348  -0.031327  -0.114096   0.324933
    12  C    1.750111  -0.827475   0.315127  -0.369432  -0.076623  -0.964914
    13  C   -0.196051  -2.593744  -0.087159  -0.036206  -0.846810   3.075726
    14  C   -0.774553  -0.430922   0.203289  -0.090637   0.300797  -0.290594
    15  C   -0.555488  -0.100251  -0.018777  -0.005961  -0.147781  -0.069932
    16  C   -0.529629  -0.080291   0.516423  -0.067211  -0.027741  -0.517828
    17  C   -0.411352   2.717714  -1.051079   0.048490  -0.271689  -2.055215
    18  H    0.074268   0.026847   0.005326  -0.000398   0.043045   0.015393
    19  H   -0.004668  -0.000597   0.000030   0.000110  -0.000643   0.006014
    20  O    0.000008  -0.001184   0.000434  -0.000025   0.000179   0.000019
    21  H    0.001953   0.006308  -0.001274   0.000234  -0.000244   0.000064
    22  H    0.050061   0.006370   0.046806  -0.004500   0.010361   0.014238
    23  C   -0.006217  -0.000279   0.002197  -0.000245  -0.001499  -0.007075
    24  H   -0.000038  -0.000042  -0.000003   0.000000   0.000003   0.000076
    25  H   -0.000259   0.000024   0.000008  -0.000001  -0.000006  -0.000144
    26  H   -0.000262   0.000032   0.000009  -0.000001  -0.000006  -0.000145
               7          8          9         10         11         12
     1  C    0.021820   0.016925   0.052377   0.003705   0.026593   1.750111
     2  C    0.372326   0.006667  -0.108380   0.031276  -0.043943  -0.827475
     3  C   -0.136809   0.291922   0.084957  -0.041081   0.004348   0.315127
     4  C   -0.014663   0.025614   0.281208   0.061136  -0.031327  -0.369432
     5  C   -0.010905  -0.017631   0.055217   0.317802  -0.114096  -0.076623
     6  C   -0.021696   0.000485  -0.040213  -0.038266   0.324933  -0.964914
     7  H    0.458286  -0.005083  -0.000252   0.000070  -0.000080   0.040253
     8  H   -0.005083   0.442644  -0.004693  -0.000201   0.000067  -0.002738
     9  H   -0.000252  -0.004693   0.438541  -0.004501  -0.000232   0.002754
    10  H    0.000070  -0.000201  -0.004501   0.441193  -0.005308  -0.006892
    11  H   -0.000080   0.000067  -0.000232  -0.005308   0.456408   0.054699
    12  C    0.040253  -0.002738   0.002754  -0.006892   0.054699   8.287485
    13  C    0.011029  -0.000498   0.001849   0.002942   0.044995  -1.600990
    14  C    0.002051  -0.000391   0.000482  -0.001083   0.017170   0.793813
    15  C   -0.001997   0.000227  -0.000023   0.000087   0.002711  -1.497010
    16  C   -0.008970   0.000278   0.000256  -0.000497   0.004169  -0.486304
    17  C    0.048869   0.007696   0.000110   0.000235   0.013055  -0.462707
    18  H   -0.000067   0.000000  -0.000001  -0.000017   0.003638   0.105957
    19  H    0.000001   0.000000   0.000000   0.000000  -0.000010   0.009895
    20  O   -0.000007   0.000000   0.000000   0.000000  -0.000005  -0.052054
    21  H   -0.000018   0.000000   0.000000   0.000000   0.000001   0.022645
    22  H    0.003956  -0.000031  -0.000001   0.000000  -0.000071   0.093082
    23  C   -0.000085   0.000000   0.000000   0.000000   0.000031  -0.110031
    24  H    0.000000   0.000000   0.000000   0.000000   0.000000   0.003696
    25  H    0.000000   0.000000   0.000000   0.000000   0.000000  -0.004554
    26  H    0.000000   0.000000   0.000000   0.000000   0.000000  -0.004484
              13         14         15         16         17         18
     1  C   -0.196051  -0.774553  -0.555488  -0.529629  -0.411352   0.074268
     2  C   -2.593744  -0.430922  -0.100251  -0.080291   2.717714   0.026847
     3  C   -0.087159   0.203289  -0.018777   0.516423  -1.051079   0.005326
     4  C   -0.036206  -0.090637  -0.005961  -0.067211   0.048490  -0.000398
     5  C   -0.846810   0.300797  -0.147781  -0.027741  -0.271689   0.043045
     6  C    3.075726  -0.290594  -0.069932  -0.517828  -2.055215   0.015393
     7  H    0.011029   0.002051  -0.001997  -0.008970   0.048869  -0.000067
     8  H   -0.000498  -0.000391   0.000227   0.000278   0.007696   0.000000
     9  H    0.001849   0.000482  -0.000023   0.000256   0.000110  -0.000001
    10  H    0.002942  -0.001083   0.000087  -0.000497   0.000235  -0.000017
    11  H    0.044995   0.017170   0.002711   0.004169   0.013055   0.003638
    12  C   -1.600990   0.793813  -1.497010  -0.486304  -0.462707   0.105957
    13  C   11.655574  -1.754445   0.236462  -0.653011  -0.949839   0.229095
    14  C   -1.754445  10.994493   0.457744  -1.335658  -1.386154  -0.073974
    15  C    0.236462   0.457744   8.812504   0.038979  -0.764781  -0.080607
    16  C   -0.653011  -1.335658   0.038979   8.318251   0.600155  -0.006653
    17  C   -0.949839  -1.386154  -0.764781   0.600155  10.174382  -0.033306
    18  H    0.229095  -0.073974  -0.080607  -0.006653  -0.033306   0.451068
    19  H   -0.045315   0.353199   0.041438  -0.009299  -0.012870  -0.004817
    20  O   -0.042927  -0.561049   0.330573   0.195888   0.051717  -0.000911
    21  H   -0.001826  -0.032495  -0.015004   0.374660  -0.010354   0.000064
    22  H   -0.043033   0.015215  -0.043862  -0.057109   0.216754  -0.000083
    23  C    0.018547   0.055062   0.095037  -0.207604  -0.103868  -0.000679
    24  H   -0.001332  -0.010226   0.034676   0.015152   0.001620   0.000000
    25  H   -0.000453   0.012745  -0.016159  -0.002103  -0.004462  -0.000001
    26  H   -0.000544   0.013040  -0.016507  -0.001950  -0.004555  -0.000001
              19         20         21         22         23         24
     1  C   -0.004668   0.000008   0.001953   0.050061  -0.006217  -0.000038
     2  C   -0.000597  -0.001184   0.006308   0.006370  -0.000279  -0.000042
     3  C    0.000030   0.000434  -0.001274   0.046806   0.002197  -0.000003
     4  C    0.000110  -0.000025   0.000234  -0.004500  -0.000245   0.000000
     5  C   -0.000643   0.000179  -0.000244   0.010361  -0.001499   0.000003
     6  C    0.006014   0.000019   0.000064   0.014238  -0.007075   0.000076
     7  H    0.000001  -0.000007  -0.000018   0.003956  -0.000085   0.000000
     8  H    0.000000   0.000000   0.000000  -0.000031   0.000000   0.000000
     9  H    0.000000   0.000000   0.000000  -0.000001   0.000000   0.000000
    10  H    0.000000   0.000000   0.000000   0.000000   0.000000   0.000000
    11  H   -0.000010  -0.000005   0.000001  -0.000071   0.000031   0.000000
    12  C    0.009895  -0.052054   0.022645   0.093082  -0.110031   0.003696
    13  C   -0.045315  -0.042927  -0.001826  -0.043033   0.018547  -0.001332
    14  C    0.353199  -0.561049  -0.032495   0.015215   0.055062  -0.010226
    15  C    0.041438   0.330573  -0.015004  -0.043862   0.095037   0.034676
    16  C   -0.009299   0.195888   0.374660  -0.057109  -0.207604   0.015152
    17  C   -0.012870   0.051717  -0.010354   0.216754  -0.103868   0.001620
    18  H   -0.004817  -0.000911   0.000064  -0.000083  -0.000679   0.000000
    19  H    0.421002  -0.001286  -0.000101   0.000050  -0.001480  -0.000034
    20  O   -0.001286   8.172437  -0.011870  -0.000336   0.109644  -0.078086
    21  H   -0.000101  -0.011870   0.435877  -0.004792  -0.008393   0.000516
    22  H    0.000050  -0.000336  -0.004792   0.450988   0.000227  -0.000001
    23  C   -0.001480   0.109644  -0.008393   0.000227   5.674632   0.382934
    24  H   -0.000034  -0.078086   0.000516  -0.000001   0.382934   0.424123
    25  H    0.000045  -0.030552  -0.000740   0.000019   0.388987  -0.022270
    26  H    0.000045  -0.030485  -0.000757   0.000019   0.388974  -0.022252
              25         26
     1  C   -0.000259  -0.000262
     2  C    0.000024   0.000032
     3  C    0.000008   0.000009
     4  C   -0.000001  -0.000001
     5  C   -0.000006  -0.000006
     6  C   -0.000144  -0.000145
     7  H    0.000000   0.000000
     8  H    0.000000   0.000000
     9  H    0.000000   0.000000
    10  H    0.000000   0.000000
    11  H    0.000000   0.000000
    12  C   -0.004554  -0.004484
    13  C   -0.000453  -0.000544
    14  C    0.012745   0.013040
    15  C   -0.016159  -0.016507
    16  C   -0.002103  -0.001950
    17  C   -0.004462  -0.004555
    18  H   -0.000001  -0.000001
    19  H    0.000045   0.000045
    20  O   -0.030552  -0.030485
    21  H   -0.000740  -0.000757
    22  H    0.000019   0.000019
    23  C    0.388987   0.388974
    24  H   -0.022270  -0.022252
    25  H    0.470628  -0.048717
    26  H   -0.048717   0.470589
 Mulliken charges:
               1
     1  C    0.862110
     2  C   -0.123345
     3  C   -0.759265
     4  C   -0.335352
     5  C   -0.643328
     6  C   -0.200034
     7  H    0.241970
     8  H    0.238741
     9  H    0.240543
    10  H    0.239401
    11  H    0.242253
    12  C    0.986693
    13  C   -0.422037
    14  C   -0.476921
    15  C   -0.716299
    16  C   -0.072354
    17  C   -0.358568
    18  H    0.246814
    19  H    0.249291
    20  O   -0.050124
    21  H    0.245544
    22  H    0.245673
    23  C   -0.668817
    24  H    0.271486
    25  H    0.257965
    26  H    0.257958
 Sum of Mulliken charges =   0.00000
 Mulliken charges with hydrogens summed into heavy atoms:
               1
     1  C    0.862110
     2  C    0.118625
     3  C   -0.520524
     4  C   -0.094809
     5  C   -0.403928
     6  C    0.042220
    12  C    0.986693
    13  C   -0.175224
    14  C   -0.227629
    15  C   -0.716299
    16  C    0.173190
    17  C   -0.112895
    20  O   -0.050124
    23  C    0.118593
 Electronic spatial extent (au):  <R**2>=           3789.7256
 Charge=              0.0000 electrons
 Dipole moment (field-independent basis, Debye):
    X=             -1.3596    Y=             -1.2232    Z=              0.0015  Tot=              1.8288
 Quadrupole moment (field-independent basis, Debye-Ang):
   XX=            -68.5691   YY=            -72.6748   ZZ=            -89.7005
   XY=              6.3452   XZ=             -0.0097   YZ=              0.0019
 Traceless Quadrupole moment (field-independent basis, Debye-Ang):
   XX=              8.4123   YY=              4.3066   ZZ=            -12.7190
   XY=              6.3452   XZ=             -0.0097   YZ=              0.0019
 Octapole moment (field-independent basis, Debye-Ang**2):
  XXX=            -52.6344  YYY=              2.5918  ZZZ=              0.0072  XYY=             -0.2418
  XXY=            -27.4244  XXZ=              0.0282  XZZ=            -18.1804  YZZ=             -0.5401
  YYZ=             -0.0016  XYZ=              0.0185
 Hexadecapole moment (field-independent basis, Debye-Ang**3):
 XXXX=          -3807.4798 YYYY=           -596.7990 ZZZZ=           -110.5862 XXXY=            118.9306
 XXXZ=             -0.3752 YYYX=             -7.5731 YYYZ=              0.0098 ZZZX=             -0.0340
 ZZZY=             -0.0046 XXYY=           -784.9903 XXZZ=           -813.9110 YYZZ=           -141.5564
 XXYZ=              0.0551 YYXZ=              0.0374 ZZXY=              4.5291
 N-N= 7.852363395836D+02 E-N=-2.913594673356D+03  KE= 5.751891302193D+02
 1\1\GINC-NXN36\SP\RwB97XD TD-FC\6-311+G(d)\C13H12O1\BTX008\04-Oct-2017
 \0\\#wb97xd 6-311+G(d) td=(nstates=2,50-50)\\s1triplets\\0,1\C,0,0.305
 172,-0.142807,0.147374\C,0,0.64625,-0.152576,1.557474\C,0,1.953933,-0.
 250129,1.972262\C,0,3.003069,-0.343107,1.048733\C,0,2.708704,-0.335595
 ,-0.329001\C,0,1.415651,-0.239582,-0.773837\H,0,-0.129689,-0.082577,2.
 30866\H,0,2.175015,-0.254891,3.035217\H,0,4.0298,-0.41969,1.390079\H,0
 ,3.516544,-0.406666,-1.050652\H,0,1.236027,-0.23715,-1.841896\C,0,-1.0
 29769,-0.045082,-0.286549\C,0,-1.391869,-0.034547,-1.68826\C,0,-2.6861
 21,0.061427,-2.099882\C,0,-3.740057,0.155557,-1.153686\C,0,-3.442132,0
 .148777,0.219842\C,0,-2.140352,0.052405,0.650245\H,0,-0.619931,-0.1045
 09,-2.443674\H,0,-2.942013,0.068194,-3.153492\O,0,-4.976447,0.245943,-
 1.67535\H,0,-4.232798,0.219171,0.957607\H,0,-1.953722,0.050346,1.71515
 5\C,0,-6.082704,0.344143,-0.803099\H,0,-6.961494,0.405977,-1.441541\H,
 0,-6.158426,-0.540217,-0.161552\H,0,-6.017038,1.244624,-0.183239\\Vers
 ion=ES64L-G09RevD.01\State=1-A\HF=-577.7356116\RMSD=5.325e-09\PG=C01 [
 X(C13H12O1)]\\@


 WHEN A MATHEMATICIAN ENGAGED IN INVESTIGATING
 PHYSICAL ACTIONS AND RESULTS HAS ARRIVED AT HIS
 CONCLUSIONS, MAY THEY NOT BE EXPRESSED IN COMMON
 LANGUAGE AS FULLY, CLEARLY, AND DEFINITELY AS IN
 MATHEMATICAL FORMULAE?
           - LETTER FROM M. FARADAY TO J.C. MAXWELL, 1857.
 Job cpu time:       0 days  0 hours 51 minutes 21.3 seconds.
 File lengths (MBytes):  RWF=    202 Int=      0 D2E=      0 Chk=     35 Scr=      1
 Normal termination of Gaussian 09 at Wed Oct  4 10:58:50 2017.
