 Entering Gaussian System, Link 0=g09
 Input=m4_t1_opt.com
 Output=m4_t1_opt.out
 Initial command:
 /share/apps/gaussian/g09_D01/g09/l1.exe "/tmp/141591.1.all.q/Gau-22527.inp" -scrdir="/tmp/141591.1.all.q/"
 Entering Link 1 = /share/apps/gaussian/g09_D01/g09/l1.exe PID=     22528.
  
 Copyright (c) 1988,1990,1992,1993,1995,1998,2003,2009,2013,
            Gaussian, Inc.  All Rights Reserved.
  
 This is part of the Gaussian(R) 09 program.  It is based on
 the Gaussian(R) 03 system (copyright 2003, Gaussian, Inc.),
 the Gaussian(R) 98 system (copyright 1998, Gaussian, Inc.),
 the Gaussian(R) 94 system (copyright 1995, Gaussian, Inc.),
 the Gaussian 92(TM) system (copyright 1992, Gaussian, Inc.),
 the Gaussian 90(TM) system (copyright 1990, Gaussian, Inc.),
 the Gaussian 88(TM) system (copyright 1988, Gaussian, Inc.),
 the Gaussian 86(TM) system (copyright 1986, Carnegie Mellon
 University), and the Gaussian 82(TM) system (copyright 1983,
 Carnegie Mellon University). Gaussian is a federally registered
 trademark of Gaussian, Inc.
  
 This software contains proprietary and confidential information,
 including trade secrets, belonging to Gaussian, Inc.
  
 This software is provided under written license and may be
 used, copied, transmitted, or stored only in accord with that
 written license.
  
 The following legend is applicable only to US Government
 contracts under FAR:
  
                    RESTRICTED RIGHTS LEGEND
  
 Use, reproduction and disclosure by the US Government is
 subject to restrictions as set forth in subparagraphs (a)
 and (c) of the Commercial Computer Software - Restricted
 Rights clause in FAR 52.227-19.
  
 Gaussian, Inc.
 340 Quinnipiac St., Bldg. 40, Wallingford CT 06492
  
  
 ---------------------------------------------------------------
 Warning -- This program may not be used in any manner that
 competes with the business of Gaussian, Inc. or will provide
 assistance to any competitor of Gaussian, Inc.  The licensee
 of this program is prohibited from giving any competitor of
 Gaussian, Inc. access to this program.  By using this program,
 the user acknowledges that Gaussian, Inc. is engaged in the
 business of creating and licensing software in the field of
 computational chemistry and represents and warrants to the
 licensee that it is not a competitor of Gaussian, Inc. and that
 it will not use this program in any manner prohibited above.
 ---------------------------------------------------------------
  

 Cite this work as:
 Gaussian 09, Revision D.01,
 M. J. Frisch, G. W. Trucks, H. B. Schlegel, G. E. Scuseria, 
 M. A. Robb, J. R. Cheeseman, G. Scalmani, V. Barone, B. Mennucci, 
 G. A. Petersson, H. Nakatsuji, M. Caricato, X. Li, H. P. Hratchian, 
 A. F. Izmaylov, J. Bloino, G. Zheng, J. L. Sonnenberg, M. Hada, 
 M. Ehara, K. Toyota, R. Fukuda, J. Hasegawa, M. Ishida, T. Nakajima, 
 Y. Honda, O. Kitao, H. Nakai, T. Vreven, J. A. Montgomery, Jr., 
 J. E. Peralta, F. Ogliaro, M. Bearpark, J. J. Heyd, E. Brothers, 
 K. N. Kudin, V. N. Staroverov, T. Keith, R. Kobayashi, J. Normand, 
 K. Raghavachari, A. Rendell, J. C. Burant, S. S. Iyengar, J. Tomasi, 
 M. Cossi, N. Rega, J. M. Millam, M. Klene, J. E. Knox, J. B. Cross, 
 V. Bakken, C. Adamo, J. Jaramillo, R. Gomperts, R. E. Stratmann, 
 O. Yazyev, A. J. Austin, R. Cammi, C. Pomelli, J. W. Ochterski, 
 R. L. Martin, K. Morokuma, V. G. Zakrzewski, G. A. Voth, 
 P. Salvador, J. J. Dannenberg, S. Dapprich, A. D. Daniels, 
 O. Farkas, J. B. Foresman, J. V. Ortiz, J. Cioslowski, 
 and D. J. Fox, Gaussian, Inc., Wallingford CT, 2013.
 
 ******************************************
 Gaussian 09:  ES64L-G09RevD.01 24-Apr-2013
                 3-Oct-2017 
 ******************************************
 %chk=../m4_t1_opt
 %mem=28GB
 %nproc=4
 Will use up to    4 processors via shared memory.
 -------------------------------------------------------------
 #wb97xd 6-311+G(d) td=(nstates=2,50-50) geom=check guess=read
 -------------------------------------------------------------
 1/29=2,38=1/1;
 2/12=2,40=1/2;
 3/5=4,6=6,7=11,11=9,14=-4,16=1,25=1,30=1,74=-58,116=-2/1,2,8,3;
 4/5=1/1;
 5/5=2,38=6/2;
 8/6=1,10=2,108=2/1;
 9/41=2,42=1,48=2,70=2/14;
 6/7=2,8=2,9=2,10=2/1;
 99/5=1,9=1/99;
 ---------
 m4_s0_opt
 ---------
 Structure from the checkpoint file:  "../m4_t1_opt.chk"
 Charge =  0 Multiplicity = 1
 Redundant internal coordinates found in file.
 C,0,0.2983366599,-0.1428321372,0.1518772333
 C,0,0.6588956791,-0.1537563409,1.5709014399
 C,0,1.9595601517,-0.2500717155,1.9814436538
 C,0,3.0173531754,-0.343654891,1.0472547705
 C,0,2.7139289885,-0.3365217543,-0.3368074325
 C,0,1.4247848513,-0.2414748421,-0.7779531582
 H,0,-0.1147878575,-0.0843945491,2.3241428391
 H,0,2.184456773,-0.254780115,3.0434362204
 H,0,4.0444331281,-0.4196036471,1.3851766234
 H,0,3.5206789457,-0.4078492787,-1.0597542463
 H,0,1.2428670949,-0.2398651486,-1.844763964
 C,0,-1.0183246849,-0.0458623985,-0.2780514848
 C,0,-1.3911370833,-0.0340724734,-1.6965584522
 C,0,-2.6813880716,0.061779626,-2.1003980299
 C,0,-3.7491406714,0.1566450203,-1.1541947116
 C,0,-3.448949235,0.1495706543,0.2245009744
 C,0,-2.1531174877,0.0536042719,0.6570697343
 H,0,-0.622748351,-0.103394069,-2.4548921825
 H,0,-2.9363997589,0.068858829,-3.154771212
 O,0,-4.9895819007,0.2472754142,-1.6854047496
 H,0,-4.2397693878,0.2199533328,0.9627260443
 H,0,-1.9723925009,0.0519853929,1.7230039962
 C,0,-6.0915581777,0.3444706224,-0.8098598094
 H,0,-6.9740372292,0.4064128704,-1.4437756325
 H,0,-6.1684284741,-0.5394658397,-0.168081926
 H,0,-6.0279315759,1.2444821657,-0.189328538
 Recover connectivity data from disk.
                          Input orientation:                          
 ---------------------------------------------------------------------
 Center     Atomic      Atomic             Coordinates (Angstroms)
 Number     Number       Type             X           Y           Z
 ---------------------------------------------------------------------
      1          6           0        0.298337   -0.142832    0.151877
      2          6           0        0.658896   -0.153756    1.570901
      3          6           0        1.959560   -0.250072    1.981444
      4          6           0        3.017353   -0.343655    1.047255
      5          6           0        2.713929   -0.336522   -0.336807
      6          6           0        1.424785   -0.241475   -0.777953
      7          1           0       -0.114788   -0.084395    2.324143
      8          1           0        2.184457   -0.254780    3.043436
      9          1           0        4.044433   -0.419604    1.385177
     10          1           0        3.520679   -0.407849   -1.059754
     11          1           0        1.242867   -0.239865   -1.844764
     12          6           0       -1.018325   -0.045862   -0.278051
     13          6           0       -1.391137   -0.034072   -1.696558
     14          6           0       -2.681388    0.061780   -2.100398
     15          6           0       -3.749141    0.156645   -1.154195
     16          6           0       -3.448949    0.149571    0.224501
     17          6           0       -2.153117    0.053604    0.657070
     18          1           0       -0.622748   -0.103394   -2.454892
     19          1           0       -2.936400    0.068859   -3.154771
     20          8           0       -4.989582    0.247275   -1.685405
     21          1           0       -4.239769    0.219953    0.962726
     22          1           0       -1.972393    0.051985    1.723004
     23          6           0       -6.091558    0.344471   -0.809860
     24          1           0       -6.974037    0.406413   -1.443776
     25          1           0       -6.168428   -0.539466   -0.168082
     26          1           0       -6.027932    1.244482   -0.189329
 ---------------------------------------------------------------------
                    Distance matrix (angstroms):
                    1          2          3          4          5
     1  C    0.000000
     2  C    1.464156   0.000000
     3  C    2.473556   1.367315   0.000000
     4  C    2.869683   2.423343   1.414352   0.000000
     5  C    2.472128   2.809968   2.439433   1.416949   0.000000
     6  C    1.463967   2.472124   2.810752   2.424479   1.365846
     7  H    2.211973   1.082021   2.108983   3.392339   3.891769
     8  H    3.454142   2.122711   1.085555   2.164799   3.422436
     9  H    3.953589   3.401034   2.175079   1.083906   2.177699
    10  H    3.452792   3.895474   3.422115   2.167244   1.085627
    11  H    2.210911   3.466296   3.892765   3.394605   2.108862
    12  C    1.388466   2.498667   3.743637   4.258147   3.744016
    13  C    2.506564   3.859178   4.980113   5.201840   4.334970
    14  C    3.740771   4.968138   6.188464   6.522863   5.690197
    15  C    4.263518   5.191655   6.525865   7.133170   6.533193
    16  C    3.759378   4.333496   5.700749   6.537068   6.207449
    17  C    2.510664   2.964035   4.331317   5.200368   4.982784
    18  H    2.764995   4.225182   5.135261   5.056985   3.959046
    19  H    4.630578   5.942027   7.103016   7.298929   6.327043
    20  O    5.611584   6.532201   7.872973   8.481016   7.842424
    21  H    4.624229   4.950400   6.300031   7.279466   7.095941
    22  H    2.768141   2.643699   3.951997   5.050815   5.133748
    23  C    6.480213   7.175297   8.541976   9.321730   8.844441
    24  H    7.465601   8.225797   9.590217  10.324520   9.779265
    25  H    6.486813   7.055862   8.412396   9.267900   8.886278
    26  H    6.485579   7.054583   8.411062   9.266525   8.884900
                    6          7          8          9         10
     6  C    0.000000
     7  H    3.466693   0.000000
     8  H    3.896190   2.415148   0.000000
     9  H    3.401973   4.277048   2.497299   0.000000
    10  H    2.121288   4.977148   4.317996   2.500429   0.000000
    11  H    1.082212   4.387161   4.978083   4.279439   2.415137
    12  C    2.501390   2.754865   4.618846   5.342053   4.620027
    13  C    2.969220   4.218725   5.941476   6.260283   4.967008
    14  C    4.324521   5.117164   7.087714   7.590628   6.306277
    15  C    5.202842   5.036413   7.279901   8.217071   7.292314
    16  C    4.991104   3.947134   6.312302   7.604072   7.108850
    17  C    3.866232   2.636847   4.960282   6.258091   5.945788
    18  H    2.650204   4.805992   6.175349   6.052165   4.382590
    19  H    4.976495   6.164696   8.046471   8.341568   6.805161
    20  O    6.496649   6.320609   8.607022   9.564864   8.558339
    21  H    5.943909   4.354487   6.769447   8.319586   8.044198
    22  H    4.228678   1.957208   4.372304   6.044726   6.174870
    23  C    7.539215   6.762225   9.148738  10.399054   9.644871
    24  H    8.450047   7.841390  10.220091  11.405786  10.533260
    25  H    7.623492   6.562381   8.953524  10.330998   9.730941
    26  H    7.622174   6.561152   8.952200  10.329607   9.729533
                   11         12         13         14         15
    11  H    0.000000
    12  C    2.757755   0.000000
    13  C    2.646185   1.466728   0.000000
    14  C    3.944124   2.469476   1.355368   0.000000
    15  C    5.055121   2.875064   2.427079   1.429824   0.000000
    16  C    5.142631   2.489717   2.821132   2.449901   1.411016
    17  C    4.228239   1.473805   2.475453   2.807626   2.416317
    18  H    1.967588   2.213239   1.081803   2.095458   3.396139
    19  H    4.390638   3.459435   2.127161   1.084797   2.161148
    20  O    6.253489   4.223441   3.609444   2.352528   1.352439
    21  H    6.176790   3.462354   3.905257   3.440392   2.173954
    22  H    4.811657   2.219018   3.469679   3.888595   3.383203
    23  C    7.430092   5.115944   4.798280   3.657139   2.375029
    24  H    8.252029   6.085555   5.605952   4.356233   3.247491
    25  H    7.604494   5.174873   5.041247   4.031723   2.703690
    26  H    7.603175   5.173879   5.040467   4.031169   2.703192
                   16         17         18         19         20
    16  C    0.000000
    17  C    1.369491   0.000000
    18  H    3.902634   3.471453   0.000000
    19  H    3.418874   3.891516   2.423321   0.000000
    20  O    2.455776   3.683779   4.447956   2.531092   0.000000
    21  H    1.084125   2.115470   4.986733   4.321503   2.752374
    22  H    2.106004   1.081148   4.393233   4.972151   4.556185
    23  C    2.844516   4.212814   5.728403   3.940761   1.410807
    24  H    3.908371   5.270606   6.451444   4.398177   2.005436
    25  H    2.832748   4.141899   6.014501   4.442565   2.076273
    26  H    2.832179   4.141107   6.013780   4.442241   2.076255
                   21         22         23         24         25
    21  H    0.000000
    22  H    2.397339   0.000000
    23  C    2.566454   4.844427   0.000000
    24  H    3.647223   5.930477   1.088327   0.000000
    25  H    2.361180   4.640338   1.095049   1.780754   0.000000
    26  H    2.361020   4.639662   1.095047   1.780762   1.789598
                   26
    26  H    0.000000
 Stoichiometry    C13H12O
 Framework group  C1[X(C13H12O)]
 Deg. of freedom    72
 Full point group                 C1      NOp   1
 Largest Abelian subgroup         C1      NOp   1
 Largest concise Abelian subgroup C1      NOp   1
                         Standard orientation:                         
 ---------------------------------------------------------------------
 Center     Atomic      Atomic             Coordinates (Angstroms)
 Number     Number       Type             X           Y           Z
 ---------------------------------------------------------------------
      1          6           0        1.583852    0.006196   -0.000006
      2          6           0        2.288833   -1.277063    0.000036
      3          6           0        3.654351   -1.347137    0.000121
      4          6           0        4.447729   -0.176264    0.000247
      5          6           0        3.806948    1.087518    0.000444
      6          6           0        2.444961    1.190126    0.000358
      7          1           0        1.726040   -2.201203    0.000013
      8          1           0        4.138321   -2.318837    0.000117
      9          1           0        5.529460   -0.244895    0.000256
     10          1           0        4.409405    1.990641    0.000712
     11          1           0        2.001492    2.177303    0.000670
     12          6           0        0.197979    0.091025   -0.000448
     13          6           0       -0.518763    1.370702   -0.000584
     14          6           0       -1.872513    1.436899   -0.000403
     15          6           0       -2.672582    0.251873   -0.000169
     16          6           0       -2.036273   -1.007522   -0.000494
     17          6           0       -0.669917   -1.100132   -0.000701
     18          1           0        0.037638    2.298449   -0.000871
     19          1           0       -2.383812    2.393642   -0.000466
     20          8           0       -4.009841    0.453936    0.000209
     21          1           0       -2.619450   -1.921432   -0.000650
     22          1           0       -0.227819   -2.086757   -0.001105
     23          6           0       -4.860848   -0.671303    0.000958
     24          1           0       -5.876273   -0.279685    0.001781
     25          1           0       -4.710163   -1.284154   -0.893939
     26          1           0       -4.708663   -1.284067    0.895658
 ---------------------------------------------------------------------
 Rotational constants (GHZ):      2.5304413      0.3096338      0.2763635
 Standard basis: 6-311+G(d) (5D, 7F)
 There are   358 symmetry adapted cartesian basis functions of A   symmetry.
 There are   344 symmetry adapted basis functions of A   symmetry.
   344 basis functions,   564 primitive gaussians,   358 cartesian basis functions
    49 alpha electrons       49 beta electrons
       nuclear repulsion energy       782.9051597555 Hartrees.
 NAtoms=   26 NActive=   26 NUniq=   26 SFac= 1.00D+00 NAtFMM=   60 NAOKFM=F Big=F
 Integral buffers will be    131072 words long.
 Raffenetti 1 integral format.
 Two-electron integral symmetry is turned on.
 Nuclear repulsion after empirical dispersion term =      782.8904430527 Hartrees.
 One-electron integrals computed using PRISM.
 NBasis=   344 RedAO= T EigKep=  1.29D-06  NBF=   344
 NBsUse=   340 1.00D-06 EigRej=  9.56D-07 NBFU=   340
 Initial guess from the checkpoint file:  "../m4_t1_opt.chk"
 B after Tr=     0.000000    0.000000    0.000000
         Rot=    1.000000    0.000000    0.000000    0.000000 Ang=   0.00 deg.
 Keep R1 ints in memory in canonical form, NReq=3544836754.
 Requested convergence on RMS density matrix=1.00D-08 within 128 cycles.
 Requested convergence on MAX density matrix=1.00D-06.
 Requested convergence on             energy=1.00D-06.
 No special actions if energy rises.
 SCF Done:  E(RwB97XD) =  -577.726965823     A.U. after    2 cycles
            NFock=  2  Conv=0.85D-08     -V/T= 2.0046
 DoSCS=F DFT=T ScalE2(SS,OS)=  1.000000  1.000000
 ExpMin= 4.38D-02 ExpMax= 8.59D+03 ExpMxC= 1.30D+03 IAcc=3 IRadAn=         5 AccDes= 0.00D+00
 HarFok:  IExCor=  205 AccDes= 0.00D+00 IRadAn=         5 IDoV=-2 UseB2=F ITyADJ=14
 ICtDFT= 12500011 ScaDFX=  1.000000  1.000000  1.000000  1.000000
 Range of M.O.s used for correlation:    15   340
 NBasis=   344 NAE=    49 NBE=    49 NFC=    14 NFV=     0
 NROrb=    326 NOA=    35 NOB=    35 NVA=   291 NVB=   291

 **** Warning!!: The largest alpha MO coefficient is  0.15666170D+03

 Would need an additional          6851700000 words for in-memory AO integral storage.
 Orbital symmetries:
       Occupied  (A) (A) (A) (A) (A) (A) (A) (A) (A) (A) (A) (A)
                 (A) (A) (A) (A) (A) (A) (A) (A) (A) (A) (A) (A)
                 (A) (A) (A) (A) (A) (A) (A) (A) (A) (A) (A) (A)
                 (A) (A) (A) (A) (A) (A) (A) (A) (A) (A) (A) (A)
                 (A)
       Virtual   (A) (A) (A) (A) (A) (A) (A) (A) (A) (A) (A) (A)
                 (A) (A) (A) (A) (A) (A) (A) (A) (A) (A) (A) (A)
                 (A) (A) (A) (A) (A) (A) (A) (A) (A) (A) (A) (A)
                 (A) (A) (A) (A) (A) (A) (A) (A) (A) (A) (A) (A)
                 (A) (A) (A) (A) (A) (A) (A) (A) (A) (A) (A) (A)
                 (A) (A) (A) (A) (A) (A) (A) (A) (A) (A) (A) (A)
                 (A) (A) (A) (A) (A) (A) (A) (A) (A) (A) (A) (A)
                 (A) (A) (A) (A) (A) (A) (A) (A) (A) (A) (A) (A)
                 (A) (A) (A) (A) (A) (A) (A) (A) (A) (A) (A) (A)
                 (A) (A) (A) (A) (A) (A) (A) (A) (A) (A) (A) (A)
                 (A) (A) (A) (A) (A) (A) (A) (A) (A) (A) (A) (A)
                 (A) (A) (A) (A) (A) (A) (A) (A) (A) (A) (A) (A)
                 (A) (A) (A) (A) (A) (A) (A) (A) (A) (A) (A) (A)
                 (A) (A) (A) (A) (A) (A) (A) (A) (A) (A) (A) (A)
                 (A) (A) (A) (A) (A) (A) (A) (A) (A) (A) (A) (A)
                 (A) (A) (A) (A) (A) (A) (A) (A) (A) (A) (A) (A)
                 (A) (A) (A) (A) (A) (A) (A) (A) (A) (A) (A) (A)
                 (A) (A) (A) (A) (A) (A) (A) (A) (A) (A) (A) (A)
                 (A) (A) (A) (A) (A) (A) (A) (A) (A) (A) (A) (A)
                 (A) (A) (A) (A) (A) (A) (A) (A) (A) (A) (A) (A)
                 (A) (A) (A) (A) (A) (A) (A) (A) (A) (A) (A) (A)
                 (A) (A) (A) (A) (A) (A) (A) (A) (A) (A) (A) (A)
                 (A) (A) (A) (A) (A) (A) (A) (A) (A) (A) (A) (A)
                 (A) (A) (A) (A) (A) (A) (A) (A) (A) (A) (A) (A)
                 (A) (A) (A)
    16 initial guesses have been made.
 Convergence on wavefunction:    0.001000000000000
 Iteration     1 Dimension    16 NMult     0 NNew     16
 CISAX will form    16 AO SS matrices at one time.
 New state      1 was old state      2
 New state      2 was old state      4
 New state      3 was old state      1
 New state      4 was old state      3
 Iteration     2 Dimension    24 NMult    16 NNew      8
 Iteration     3 Dimension    32 NMult    24 NNew      8
 Iteration     4 Dimension    40 NMult    32 NNew      8
 Iteration     5 Dimension    48 NMult    40 NNew      8
 Iteration     6 Dimension    56 NMult    48 NNew      8
 Iteration     7 Dimension    64 NMult    56 NNew      8
 Iteration     8 Dimension    68 NMult    64 NNew      4
 Iteration     9 Dimension    70 NMult    68 NNew      2
 Iteration    10 Dimension    72 NMult    70 NNew      2
 Iteration    11 Dimension    74 NMult    72 NNew      2
 ***********************************************************************
 Excited states from <AA,BB:AA,BB> singles matrix:
 ***********************************************************************
 
 Ground to excited state transition densities written to RWF  633
 Ground to excited state transition electric dipole moments (Au):
       state          X           Y           Z        Dip. S.      Osc.
         1         0.0000      0.0000      0.0000      0.0000      0.0000
         2         0.0000      0.0000      0.0000      0.0000      0.0000
         3        -2.7526      0.0047     -0.0002      7.5769      0.7138
         4         0.2431     -0.1713      0.0000      0.0884      0.0096
 Ground to excited state transition velocity dipole moments (Au):
       state          X           Y           Z        Dip. S.      Osc.
         1         0.0000      0.0000      0.0000      0.0000      0.0000
         2         0.0000      0.0000      0.0000      0.0000      0.0000
         3         0.3910     -0.0002      0.0000      0.1528      0.7211
         4        -0.0389      0.0294      0.0000      0.0024      0.0098
 Ground to excited state transition magnetic dipole moments (Au):
       state          X           Y           Z
         1         0.0000      0.0000      0.0000
         2         0.0000      0.0000      0.0000
         3         0.0000     -0.0004     -0.2587
         4         0.0003      0.0001     -0.8674
 Ground to excited state transition velocity quadrupole moments (Au):
       state          XX          YY          ZZ          XY          XZ          YZ
         1         0.0000      0.0000      0.0000      0.0000      0.0000      0.0000
         2         0.0000      0.0000      0.0000      0.0000      0.0000      0.0000
         3         0.6950      0.0174      0.0186     -0.1547      0.0002      0.0000
         4        -0.1181      0.0587     -0.0192     -0.4719      0.0000     -0.0001
 <0|del|b> * <b|rxdel|0> + <0|del|b> * <b|delr+rdel|0>
 Rotatory Strengths (R) in cgs (10**-40 erg-esu-cm/Gauss)
       state          XX          YY          ZZ    R(velocity)    E-M Angle
         1         0.0000      0.0000      0.0000      0.0000       90.00
         2         0.0000      0.0000      0.0000      0.0000       90.00
         3        -0.0295     -0.0092     -0.0270     -0.0219       90.00
         4         0.0206     -0.0127     -0.0253     -0.0058       90.00
 1/2[<0|r|b>*<b|rxdel|0> + (<0|rxdel|b>*<b|r|0>)*]
 Rotatory Strengths (R) in cgs (10**-40 erg-esu-cm/Gauss)
       state          XX          YY          ZZ     R(length)
         1         0.0000      0.0000      0.0000      0.0000
         2         0.0000      0.0000      0.0000      0.0000
         3        -0.0287      0.0013     -0.0367     -0.0214
         4        -0.0454      0.0118      0.0130     -0.0069
  1/2[<0|del|b>*<b|r|0> + (<0|r|b>*<b|del|0>)*] (Au)
       state          X           Y           Z        Dip. S.   Osc.(frdel)
         1         0.0000      0.0000      0.0000      0.0000      0.0000
         2         0.0000      0.0000      0.0000      0.0000      0.0000
         3        -1.0762      0.0000      0.0000      1.0762      0.7174
         4        -0.0095     -0.0050      0.0000      0.0145      0.0097

 Excitation energies and oscillator strengths:
 
 Excited State   1:      Triplet-A      1.9857 eV  624.40 nm  f=0.0000  <S**2>=2.000
      49 -> 50         0.68782
      49 <- 50         0.16568
 This state for optimization and/or second-order correction.
 Total Energy, E(TD-HF/TD-KS) =  -577.653994284    
 Copying the excited state density for this state as the 1-particle RhoCI density.
 
 Excited State   2:      Triplet-A      3.7325 eV  332.17 nm  f=0.0000  <S**2>=2.000
      46 -> 50        -0.18254
      47 -> 50        -0.18425
      47 -> 51        -0.11000
      48 -> 55        -0.11602
      49 -> 51         0.54614
      49 -> 55         0.13263
      49 -> 58        -0.13025
      49 -> 61        -0.16367
 
 Excited State   3:      Singlet-A      3.8451 eV  322.45 nm  f=0.7138  <S**2>=0.000
      49 -> 50         0.69537
 
 Excited State   4:      Singlet-A      4.4180 eV  280.63 nm  f=0.0096  <S**2>=0.000
      46 -> 55        -0.10345
      47 -> 50         0.11420
      48 -> 50         0.20921
      49 -> 51         0.63870
 SavETr:  write IOETrn=   770 NScale= 10 NData=  16 NLR=1 NState=    4 LETran=      82.

 **********************************************************************

            Population analysis using the SCF density.

 **********************************************************************

 Orbital symmetries:
       Occupied  (A) (A) (A) (A) (A) (A) (A) (A) (A) (A) (A) (A)
                 (A) (A) (A) (A) (A) (A) (A) (A) (A) (A) (A) (A)
                 (A) (A) (A) (A) (A) (A) (A) (A) (A) (A) (A) (A)
                 (A) (A) (A) (A) (A) (A) (A) (A) (A) (A) (A) (A)
                 (A)
       Virtual   (A) (A) (A) (A) (A) (A) (A) (A) (A) (A) (A) (A)
                 (A) (A) (A) (A) (A) (A) (A) (A) (A) (A) (A) (A)
                 (A) (A) (A) (A) (A) (A) (A) (A) (A) (A) (A) (A)
                 (A) (A) (A) (A) (A) (A) (A) (A) (A) (A) (A) (A)
                 (A) (A) (A) (A) (A) (A) (A) (A) (A) (A) (A) (A)
                 (A) (A) (A) (A) (A) (A) (A) (A) (A) (A) (A) (A)
                 (A) (A) (A) (A) (A) (A) (A) (A) (A) (A) (A) (A)
                 (A) (A) (A) (A) (A) (A) (A) (A) (A) (A) (A) (A)
                 (A) (A) (A) (A) (A) (A) (A) (A) (A) (A) (A) (A)
                 (A) (A) (A) (A) (A) (A) (A) (A) (A) (A) (A) (A)
                 (A) (A) (A) (A) (A) (A) (A) (A) (A) (A) (A) (A)
                 (A) (A) (A) (A) (A) (A) (A) (A) (A) (A) (A) (A)
                 (A) (A) (A) (A) (A) (A) (A) (A) (A) (A) (A) (A)
                 (A) (A) (A) (A) (A) (A) (A) (A) (A) (A) (A) (A)
                 (A) (A) (A) (A) (A) (A) (A) (A) (A) (A) (A) (A)
                 (A) (A) (A) (A) (A) (A) (A) (A) (A) (A) (A) (A)
                 (A) (A) (A) (A) (A) (A) (A) (A) (A) (A) (A) (A)
                 (A) (A) (A) (A) (A) (A) (A) (A) (A) (A) (A) (A)
                 (A) (A) (A) (A) (A) (A) (A) (A) (A) (A) (A) (A)
                 (A) (A) (A) (A) (A) (A) (A) (A) (A) (A) (A) (A)
                 (A) (A) (A) (A) (A) (A) (A) (A) (A) (A) (A) (A)
                 (A) (A) (A) (A) (A) (A) (A) (A) (A) (A) (A) (A)
                 (A) (A) (A) (A) (A) (A) (A) (A) (A) (A) (A) (A)
                 (A) (A) (A) (A) (A) (A) (A) (A) (A) (A) (A) (A)
                 (A) (A) (A)
 The electronic state is 1-A.
 Alpha  occ. eigenvalues --  -19.28953 -10.36045 -10.34258 -10.30775 -10.30372
 Alpha  occ. eigenvalues --  -10.30087 -10.29697 -10.29345 -10.28996 -10.28984
 Alpha  occ. eigenvalues --  -10.28922 -10.28850 -10.28801 -10.28791  -1.18596
 Alpha  occ. eigenvalues --   -0.96809  -0.94443  -0.88292  -0.86421  -0.85014
 Alpha  occ. eigenvalues --   -0.83376  -0.78688  -0.72832  -0.71561  -0.67972
 Alpha  occ. eigenvalues --   -0.67246  -0.63847  -0.61206  -0.58224  -0.58001
 Alpha  occ. eigenvalues --   -0.57077  -0.53675  -0.53103  -0.52755  -0.52326
 Alpha  occ. eigenvalues --   -0.50722  -0.49621  -0.48047  -0.47392  -0.45656
 Alpha  occ. eigenvalues --   -0.45217  -0.44000  -0.42603  -0.41477  -0.39708
 Alpha  occ. eigenvalues --   -0.34949  -0.34292  -0.33449  -0.26116
 Alpha virt. eigenvalues --    0.00479   0.04741   0.05749   0.06615   0.07306
 Alpha virt. eigenvalues --    0.07426   0.07923   0.08449   0.09586   0.09618
 Alpha virt. eigenvalues --    0.09946   0.10341   0.10821   0.11850   0.11952
 Alpha virt. eigenvalues --    0.12505   0.13744   0.13913   0.14089   0.15150
 Alpha virt. eigenvalues --    0.16072   0.16522   0.16749   0.17542   0.18574
 Alpha virt. eigenvalues --    0.18655   0.19277   0.19361   0.19672   0.20735
 Alpha virt. eigenvalues --    0.20929   0.21038   0.21879   0.22283   0.22595
 Alpha virt. eigenvalues --    0.22624   0.22849   0.23392   0.24312   0.24420
 Alpha virt. eigenvalues --    0.25462   0.25560   0.25677   0.26048   0.26292
 Alpha virt. eigenvalues --    0.26728   0.26769   0.27051   0.27785   0.28010
 Alpha virt. eigenvalues --    0.28532   0.28672   0.29097   0.29920   0.30655
 Alpha virt. eigenvalues --    0.31321   0.31445   0.32003   0.33189   0.33974
 Alpha virt. eigenvalues --    0.34219   0.34386   0.34956   0.35666   0.36228
 Alpha virt. eigenvalues --    0.36504   0.37220   0.37453   0.38440   0.39768
 Alpha virt. eigenvalues --    0.40197   0.40598   0.41491   0.42433   0.42987
 Alpha virt. eigenvalues --    0.44217   0.45347   0.45935   0.49226   0.50283
 Alpha virt. eigenvalues --    0.51087   0.52129   0.53402   0.56621   0.57391
 Alpha virt. eigenvalues --    0.58453   0.59216   0.60417   0.60976   0.61648
 Alpha virt. eigenvalues --    0.63163   0.63283   0.63346   0.63821   0.64093
 Alpha virt. eigenvalues --    0.65175   0.66310   0.66424   0.66604   0.67677
 Alpha virt. eigenvalues --    0.69682   0.69964   0.70590   0.70840   0.71424
 Alpha virt. eigenvalues --    0.71645   0.72729   0.74913   0.75731   0.76179
 Alpha virt. eigenvalues --    0.76226   0.77888   0.77968   0.78786   0.80060
 Alpha virt. eigenvalues --    0.80594   0.80788   0.81760   0.82357   0.84358
 Alpha virt. eigenvalues --    0.85443   0.86756   0.88209   0.89883   0.91944
 Alpha virt. eigenvalues --    0.92278   0.93546   0.93884   0.94732   0.96382
 Alpha virt. eigenvalues --    0.96956   0.97771   0.98914   0.99962   1.01268
 Alpha virt. eigenvalues --    1.02810   1.03161   1.04555   1.06397   1.07034
 Alpha virt. eigenvalues --    1.07905   1.08487   1.10706   1.10984   1.14323
 Alpha virt. eigenvalues --    1.15767   1.17054   1.18434   1.19745   1.19763
 Alpha virt. eigenvalues --    1.21930   1.21941   1.25773   1.27226   1.27596
 Alpha virt. eigenvalues --    1.28557   1.30430   1.31160   1.31325   1.33148
 Alpha virt. eigenvalues --    1.37670   1.39690   1.42513   1.43877   1.46855
 Alpha virt. eigenvalues --    1.54673   1.57698   1.58526   1.59593   1.60916
 Alpha virt. eigenvalues --    1.61319   1.62999   1.64657   1.64800   1.67129
 Alpha virt. eigenvalues --    1.70668   1.72881   1.77819   1.79111   1.80565
 Alpha virt. eigenvalues --    1.82442   1.82513   1.85752   1.86740   1.87361
 Alpha virt. eigenvalues --    1.87486   1.91427   1.93063   1.93145   1.94571
 Alpha virt. eigenvalues --    1.95804   1.96368   1.97620   2.00789   2.02055
 Alpha virt. eigenvalues --    2.03169   2.03340   2.04270   2.08234   2.12969
 Alpha virt. eigenvalues --    2.14779   2.16618   2.22266   2.25900   2.26991
 Alpha virt. eigenvalues --    2.34946   2.35118   2.35761   2.40110   2.40852
 Alpha virt. eigenvalues --    2.43986   2.45705   2.46125   2.46313   2.47979
 Alpha virt. eigenvalues --    2.49851   2.51323   2.56541   2.58854   2.60568
 Alpha virt. eigenvalues --    2.63593   2.69649   2.72313   2.72916   2.75955
 Alpha virt. eigenvalues --    2.80584   2.83215   2.84177   2.84975   2.88664
 Alpha virt. eigenvalues --    2.89300   2.91235   2.92841   2.96768   2.97005
 Alpha virt. eigenvalues --    2.97753   3.03592   3.06033   3.07821   3.09098
 Alpha virt. eigenvalues --    3.15738   3.15859   3.17239   3.21777   3.26431
 Alpha virt. eigenvalues --    3.26662   3.30214   3.31118   3.32570   3.34266
 Alpha virt. eigenvalues --    3.39761   3.41250   3.42986   3.46034   3.46887
 Alpha virt. eigenvalues --    3.47631   3.48351   3.49692   3.50804   3.58877
 Alpha virt. eigenvalues --    3.67974   3.72691   3.74285   3.76400   3.76708
 Alpha virt. eigenvalues --    3.94521   4.05051   4.07636   4.11766   4.17236
 Alpha virt. eigenvalues --    4.23505   4.65459   4.81103   4.87677   5.11797
 Alpha virt. eigenvalues --    5.45936   5.83459  23.42287  23.62718  23.67028
 Alpha virt. eigenvalues --   23.84670  23.87400  23.93017  24.03870  24.05417
 Alpha virt. eigenvalues --   24.18870  24.23178  24.24308  24.27961  24.30043
 Alpha virt. eigenvalues --   50.08008
          Condensed to atoms (all electrons):
               1          2          3          4          5          6
     1  C    7.218071  -1.533078   0.911622  -0.766486   0.345205  -0.599806
     2  C   -1.533078  15.441619  -5.852516   1.214849  -0.571340  -1.587843
     3  C    0.911622  -5.852516  11.736202  -0.481179   0.926049  -0.626436
     4  C   -0.766486   1.214849  -0.481179   5.990025   0.379340   0.186046
     5  C    0.345205  -0.571340   0.926049   0.379340   8.365724  -2.099826
     6  C   -0.599806  -1.587843  -0.626436   0.186046  -2.099826  11.491923
     7  H    0.023468   0.357569  -0.123015  -0.015059  -0.009659  -0.022564
     8  H    0.014331   0.013933   0.286905   0.026300  -0.018976   0.002017
     9  H    0.052747  -0.106487   0.086020   0.278434   0.057783  -0.043462
    10  H    0.004592   0.029980  -0.039928   0.057804   0.316271  -0.034952
    11  H    0.028937  -0.041716   0.004169  -0.029886  -0.109076   0.320122
    12  C    1.680888  -0.835147   0.277575  -0.353700  -0.060565  -0.865722
    13  C   -0.133365  -2.358407  -0.114358  -0.035568  -0.788923   2.761527
    14  C   -0.727727  -0.425676   0.188142  -0.088119   0.331735  -0.296268
    15  C   -0.539346  -0.097334  -0.017670  -0.005406  -0.142339  -0.066806
    16  C   -0.498456  -0.119733   0.513933  -0.067142  -0.018031  -0.488113
    17  C   -0.421163   2.548419  -0.972125   0.045868  -0.302808  -1.875145
    18  H    0.071110   0.025631   0.005722  -0.000468   0.042107   0.015448
    19  H   -0.004678  -0.000558   0.000038   0.000107  -0.000660   0.005783
    20  O    0.000456  -0.001305   0.000358  -0.000023   0.000178  -0.000043
    21  H    0.001630   0.006109  -0.001138   0.000225  -0.000275   0.000049
    22  H    0.049958   0.005888   0.045594  -0.004059   0.010383   0.013907
    23  C   -0.004936  -0.000431   0.002062  -0.000213  -0.001476  -0.006524
    24  H   -0.000054  -0.000038  -0.000003   0.000000   0.000003   0.000070
    25  H   -0.000213   0.000027   0.000008  -0.000001  -0.000006  -0.000133
    26  H   -0.000214   0.000031   0.000009  -0.000001  -0.000006  -0.000134
               7          8          9         10         11         12
     1  C    0.023468   0.014331   0.052747   0.004592   0.028937   1.680888
     2  C    0.357569   0.013933  -0.106487   0.029980  -0.041716  -0.835147
     3  C   -0.123015   0.286905   0.086020  -0.039928   0.004169   0.277575
     4  C   -0.015059   0.026300   0.278434   0.057804  -0.029886  -0.353700
     5  C   -0.009659  -0.018976   0.057783   0.316271  -0.109076  -0.060565
     6  C   -0.022564   0.002017  -0.043462  -0.034952   0.320122  -0.865722
     7  H    0.459370  -0.005426  -0.000248   0.000068  -0.000082   0.041897
     8  H   -0.005426   0.441924  -0.004363  -0.000197   0.000065  -0.003014
     9  H   -0.000248  -0.004363   0.436694  -0.004334  -0.000229   0.002748
    10  H    0.000068  -0.000197  -0.004334   0.441349  -0.005552  -0.006678
    11  H   -0.000082   0.000065  -0.000229  -0.005552   0.457267   0.053141
    12  C    0.041897  -0.003014   0.002748  -0.006678   0.053141   8.113402
    13  C    0.011386  -0.000493   0.001820   0.003172   0.042462  -1.454144
    14  C    0.002392  -0.000396   0.000470  -0.000974   0.015393   0.778737
    15  C   -0.001951   0.000221  -0.000018   0.000091   0.002170  -1.442964
    16  C   -0.007010   0.000197   0.000253  -0.000483   0.003928  -0.444182
    17  C    0.044226   0.007491   0.000234   0.000159   0.013505  -0.496523
    18  H   -0.000064   0.000000  -0.000001  -0.000017   0.003319   0.103866
    19  H    0.000001   0.000000   0.000000   0.000000  -0.000011   0.009525
    20  O   -0.000006   0.000000   0.000000   0.000000  -0.000004  -0.050085
    21  H   -0.000013   0.000000   0.000000   0.000000   0.000001   0.020517
    22  H    0.003563  -0.000028  -0.000001   0.000000  -0.000068   0.092081
    23  C   -0.000074   0.000000   0.000000   0.000000   0.000028  -0.108627
    24  H    0.000000   0.000000   0.000000   0.000000   0.000000   0.003455
    25  H    0.000000   0.000000   0.000000   0.000000   0.000000  -0.004223
    26  H    0.000000   0.000000   0.000000   0.000000   0.000000  -0.004202
              13         14         15         16         17         18
     1  C   -0.133365  -0.727727  -0.539346  -0.498456  -0.421163   0.071110
     2  C   -2.358407  -0.425676  -0.097334  -0.119733   2.548419   0.025631
     3  C   -0.114358   0.188142  -0.017670   0.513933  -0.972125   0.005722
     4  C   -0.035568  -0.088119  -0.005406  -0.067142   0.045868  -0.000468
     5  C   -0.788923   0.331735  -0.142339  -0.018031  -0.302808   0.042107
     6  C    2.761527  -0.296268  -0.066806  -0.488113  -1.875145   0.015448
     7  H    0.011386   0.002392  -0.001951  -0.007010   0.044226  -0.000064
     8  H   -0.000493  -0.000396   0.000221   0.000197   0.007491   0.000000
     9  H    0.001820   0.000470  -0.000018   0.000253   0.000234  -0.000001
    10  H    0.003172  -0.000974   0.000091  -0.000483   0.000159  -0.000017
    11  H    0.042462   0.015393   0.002170   0.003928   0.013505   0.003319
    12  C   -1.454144   0.778737  -1.442964  -0.444182  -0.496523   0.103866
    13  C   11.259296  -1.719546   0.220445  -0.623847  -0.780352   0.229753
    14  C   -1.719546  10.846119   0.463149  -1.307866  -1.338972  -0.069354
    15  C    0.220445   0.463149   8.797155  -0.008480  -0.778029  -0.079584
    16  C   -0.623847  -1.307866  -0.008480   8.286861   0.527237  -0.005199
    17  C   -0.780352  -1.338972  -0.778029   0.527237  10.020119  -0.033472
    18  H    0.229753  -0.069354  -0.079584  -0.005199  -0.033472   0.450147
    19  H   -0.047222   0.349423   0.044388  -0.007489  -0.012623  -0.005118
    20  O   -0.037246  -0.550256   0.318991   0.193274   0.052099  -0.000879
    21  H   -0.001393  -0.032434  -0.017155   0.376774  -0.010062   0.000061
    22  H   -0.043019   0.015145  -0.043843  -0.056073   0.219047  -0.000082
    23  C    0.021801   0.039997   0.091142  -0.202229  -0.100033  -0.000677
    24  H   -0.001612  -0.009896   0.035831   0.013996   0.001547   0.000000
    25  H   -0.000174   0.013110  -0.017106  -0.002345  -0.004203  -0.000001
    26  H   -0.000208   0.013252  -0.017252  -0.002304  -0.004263  -0.000001
              19         20         21         22         23         24
     1  C   -0.004678   0.000456   0.001630   0.049958  -0.004936  -0.000054
     2  C   -0.000558  -0.001305   0.006109   0.005888  -0.000431  -0.000038
     3  C    0.000038   0.000358  -0.001138   0.045594   0.002062  -0.000003
     4  C    0.000107  -0.000023   0.000225  -0.004059  -0.000213   0.000000
     5  C   -0.000660   0.000178  -0.000275   0.010383  -0.001476   0.000003
     6  C    0.005783  -0.000043   0.000049   0.013907  -0.006524   0.000070
     7  H    0.000001  -0.000006  -0.000013   0.003563  -0.000074   0.000000
     8  H    0.000000   0.000000   0.000000  -0.000028   0.000000   0.000000
     9  H    0.000000   0.000000   0.000000  -0.000001   0.000000   0.000000
    10  H    0.000000   0.000000   0.000000   0.000000   0.000000   0.000000
    11  H   -0.000011  -0.000004   0.000001  -0.000068   0.000028   0.000000
    12  C    0.009525  -0.050085   0.020517   0.092081  -0.108627   0.003455
    13  C   -0.047222  -0.037246  -0.001393  -0.043019   0.021801  -0.001612
    14  C    0.349423  -0.550256  -0.032434   0.015145   0.039997  -0.009896
    15  C    0.044388   0.318991  -0.017155  -0.043843   0.091142   0.035831
    16  C   -0.007489   0.193274   0.376774  -0.056073  -0.202229   0.013996
    17  C   -0.012623   0.052099  -0.010062   0.219047  -0.100033   0.001547
    18  H   -0.005118  -0.000879   0.000061  -0.000082  -0.000677   0.000000
    19  H    0.421924  -0.001029  -0.000100   0.000048  -0.001139  -0.000034
    20  O   -0.001029   8.165587  -0.011208  -0.000312   0.109199  -0.077846
    21  H   -0.000100  -0.011208   0.435879  -0.005127  -0.007380   0.000490
    22  H    0.000048  -0.000312  -0.005127   0.450677   0.000190  -0.000001
    23  C   -0.001139   0.109199  -0.007380   0.000190   5.678032   0.383047
    24  H   -0.000034  -0.077846   0.000490  -0.000001   0.383047   0.424235
    25  H    0.000045  -0.030174  -0.000709   0.000018   0.388561  -0.022334
    26  H    0.000045  -0.030129  -0.000719   0.000018   0.388579  -0.022326
              25         26
     1  C   -0.000213  -0.000214
     2  C    0.000027   0.000031
     3  C    0.000008   0.000009
     4  C   -0.000001  -0.000001
     5  C   -0.000006  -0.000006
     6  C   -0.000133  -0.000134
     7  H    0.000000   0.000000
     8  H    0.000000   0.000000
     9  H    0.000000   0.000000
    10  H    0.000000   0.000000
    11  H    0.000000   0.000000
    12  C   -0.004223  -0.004202
    13  C   -0.000174  -0.000208
    14  C    0.013110   0.013252
    15  C   -0.017106  -0.017252
    16  C   -0.002345  -0.002304
    17  C   -0.004203  -0.004263
    18  H   -0.000001  -0.000001
    19  H    0.000045   0.000045
    20  O   -0.030174  -0.030129
    21  H   -0.000709  -0.000719
    22  H    0.000018   0.000018
    23  C    0.388561   0.388579
    24  H   -0.022334  -0.022326
    25  H    0.470591  -0.048954
    26  H   -0.048954   0.470580
 Mulliken charges:
               1
     1  C    0.826507
     2  C   -0.112448
     3  C   -0.756041
     4  C   -0.331687
     5  C   -0.650810
     6  C   -0.183114
     7  H    0.241231
     8  H    0.239509
     9  H    0.241940
    10  H    0.239627
    11  H    0.242118
    12  C    0.951943
    13  C   -0.411786
    14  C   -0.489582
    15  C   -0.698299
    16  C   -0.057473
    17  C   -0.350180
    18  H    0.247752
    19  H    0.249334
    20  O   -0.049596
    21  H    0.245978
    22  H    0.246095
    23  C   -0.668899
    24  H    0.271469
    25  H    0.258214
    26  H    0.258199
 Sum of Mulliken charges =   0.00000
 Mulliken charges with hydrogens summed into heavy atoms:
               1
     1  C    0.826507
     2  C    0.128783
     3  C   -0.516532
     4  C   -0.089748
     5  C   -0.411183
     6  C    0.059004
    12  C    0.951943
    13  C   -0.164034
    14  C   -0.240249
    15  C   -0.698299
    16  C    0.188506
    17  C   -0.104085
    20  O   -0.049596
    23  C    0.118983
 Electronic spatial extent (au):  <R**2>=           3809.7723
 Charge=              0.0000 electrons
 Dipole moment (field-independent basis, Debye):
    X=             -1.4091    Y=             -1.2241    Z=              0.0007  Tot=              1.8665
 Quadrupole moment (field-independent basis, Debye-Ang):
   XX=            -68.6673   YY=            -72.5995   ZZ=            -89.8521
   XY=              6.4014   XZ=             -0.0035   YZ=              0.0010
 Traceless Quadrupole moment (field-independent basis, Debye-Ang):
   XX=              8.3723   YY=              4.4402   ZZ=            -12.8125
   XY=              6.4014   XZ=             -0.0035   YZ=              0.0010
 Octapole moment (field-independent basis, Debye-Ang**2):
  XXX=            -53.1675  YYY=              2.6102  ZZZ=              0.0057  XYY=             -0.1399
  XXY=            -27.8220  XXZ=              0.0324  XZZ=            -18.4395  YZZ=             -0.5320
  YYZ=             -0.0033  XYZ=              0.0057
 Hexadecapole moment (field-independent basis, Debye-Ang**3):
 XXXX=          -3828.1713 YYYY=           -600.8426 ZZZZ=           -110.9488 XXXY=            120.6260
 XXXZ=             -0.1275 YYYX=             -7.4846 YYYZ=              0.0077 ZZZX=             -0.0263
 ZZZY=             -0.0022 XXYY=           -789.0219 XXZZ=           -819.1973 YYZZ=           -142.6248
 XXYZ=              0.0115 YYXZ=              0.0153 ZZXY=              4.5193
 N-N= 7.828904430527D+02 E-N=-2.908753989668D+03  KE= 5.750550316898D+02
 1\1\GINC-NXN33\SP\RwB97XD TD-FC\6-311+G(d)\C13H12O1\BTX008\03-Oct-2017
 \0\\#wb97xd 6-311+G(d) td=(nstates=2,50-50) geom=check guess=read\\m4_
 s0_opt\\0,1\C,0,0.2983366599,-0.1428321372,0.1518772333\C,0,0.65889567
 91,-0.1537563409,1.5709014399\C,0,1.9595601517,-0.2500717155,1.9814436
 538\C,0,3.0173531754,-0.343654891,1.0472547705\C,0,2.7139289885,-0.336
 5217543,-0.3368074325\C,0,1.4247848513,-0.2414748421,-0.7779531582\H,0
 ,-0.1147878575,-0.0843945491,2.3241428391\H,0,2.184456773,-0.254780115
 ,3.0434362204\H,0,4.0444331281,-0.4196036471,1.3851766234\H,0,3.520678
 9457,-0.4078492787,-1.0597542463\H,0,1.2428670949,-0.2398651486,-1.844
 763964\C,0,-1.0183246849,-0.0458623985,-0.2780514848\C,0,-1.3911370833
 ,-0.0340724734,-1.6965584522\C,0,-2.6813880716,0.061779626,-2.10039802
 99\C,0,-3.7491406714,0.1566450203,-1.1541947116\C,0,-3.448949235,0.149
 5706543,0.2245009744\C,0,-2.1531174877,0.0536042719,0.6570697343\H,0,-
 0.622748351,-0.103394069,-2.4548921825\H,0,-2.9363997589,0.068858829,-
 3.154771212\O,0,-4.9895819007,0.2472754142,-1.6854047496\H,0,-4.239769
 3878,0.2199533328,0.9627260443\H,0,-1.9723925009,0.0519853929,1.723003
 9962\C,0,-6.0915581777,0.3444706224,-0.8098598094\H,0,-6.9740372292,0.
 4064128704,-1.4437756325\H,0,-6.1684284741,-0.5394658397,-0.168081926\
 H,0,-6.0279315759,1.2444821657,-0.189328538\\Version=ES64L-G09RevD.01\
 State=1-A\HF=-577.7269658\RMSD=8.501e-09\PG=C01 [X(C13H12O1)]\\@


 THE HURRIEDER I GO, THE BEHINDER I GET.
 Job cpu time:       0 days  0 hours 44 minutes 15.5 seconds.
 File lengths (MBytes):  RWF=    202 Int=      0 D2E=      0 Chk=     31 Scr=      1
 Normal termination of Gaussian 09 at Tue Oct  3 18:51:36 2017.
